 Entering Gaussian System, Link 0=/software/sse/easybuild/prefix/software/Gaussian/16.B.01-avx2-nsc1-bdist/g16/g16.orig
 Input=freq-lm.wrap
 Output=freq-lm.log
 Initial command:
 /software/sse/easybuild/prefix/software/Gaussian/16.B.01-avx2-nsc1-bdist/g16/l1.exe "/scratch/local/Gau-130918.inp" -scrdir="/scratch/local/"
 Default is to use a total of  16 processors:
                               16 via shared-memory
                                1 via Linda
 Entering Link 1 = /software/sse/easybuild/prefix/software/Gaussian/16.B.01-avx2-nsc1-bdist/g16/l1.exe PID=    130926.
  
 Copyright (c) 1988-2017, Gaussian, Inc.  All Rights Reserved.
  
 This is part of the Gaussian(R) 16 program.  It is based on
 the Gaussian(R) 09 system (copyright 2009, Gaussian, Inc.),
 the Gaussian(R) 03 system (copyright 2003, Gaussian, Inc.),
 the Gaussian(R) 98 system (copyright 1998, Gaussian, Inc.),
 the Gaussian(R) 94 system (copyright 1995, Gaussian, Inc.),
 the Gaussian 92(TM) system (copyright 1992, Gaussian, Inc.),
 the Gaussian 90(TM) system (copyright 1990, Gaussian, Inc.),
 the Gaussian 88(TM) system (copyright 1988, Gaussian, Inc.),
 the Gaussian 86(TM) system (copyright 1986, Carnegie Mellon
 University), and the Gaussian 82(TM) system (copyright 1983,
 Carnegie Mellon University). Gaussian is a federally registered
 trademark of Gaussian, Inc.
  
 This software contains proprietary and confidential information,
 including trade secrets, belonging to Gaussian, Inc.
  
 This software is provided under written license and may be
 used, copied, transmitted, or stored only in accord with that
 written license.
  
 The following legend is applicable only to US Government
 contracts under FAR:
  
                    RESTRICTED RIGHTS LEGEND
  
 Use, reproduction and disclosure by the US Government is
 subject to restrictions as set forth in subparagraphs (a)
 and (c) of the Commercial Computer Software - Restricted
 Rights clause in FAR 52.227-19.
  
 Gaussian, Inc.
 340 Quinnipiac St., Bldg. 40, Wallingford CT 06492
  
  
 ---------------------------------------------------------------
 Warning -- This program may not be used in any manner that
 competes with the business of Gaussian, Inc. or will provide
 assistance to any competitor of Gaussian, Inc.  The licensee
 of this program is prohibited from giving any competitor of
 Gaussian, Inc. access to this program.  By using this program,
 the user acknowledges that Gaussian, Inc. is engaged in the
 business of creating and licensing software in the field of
 computational chemistry and represents and warrants to the
 licensee that it is not a competitor of Gaussian, Inc. and that
 it will not use this program in any manner prohibited above.
 ---------------------------------------------------------------
  

 Cite this work as:
 Gaussian 16, Revision B.01,
 M. J. Frisch, G. W. Trucks, H. B. Schlegel, G. E. Scuseria, 
 M. A. Robb, J. R. Cheeseman, G. Scalmani, V. Barone, 
 G. A. Petersson, H. Nakatsuji, X. Li, M. Caricato, A. V. Marenich, 
 J. Bloino, B. G. Janesko, R. Gomperts, B. Mennucci, H. P. Hratchian, 
 J. V. Ortiz, A. F. Izmaylov, J. L. Sonnenberg, D. Williams-Young, 
 F. Ding, F. Lipparini, F. Egidi, J. Goings, B. Peng, A. Petrone, 
 T. Henderson, D. Ranasinghe, V. G. Zakrzewski, J. Gao, N. Rega, 
 G. Zheng, W. Liang, M. Hada, M. Ehara, K. Toyota, R. Fukuda, 
 J. Hasegawa, M. Ishida, T. Nakajima, Y. Honda, O. Kitao, H. Nakai, 
 T. Vreven, K. Throssell, J. A. Montgomery, Jr., J. E. Peralta, 
 F. Ogliaro, M. J. Bearpark, J. J. Heyd, E. N. Brothers, K. N. Kudin, 
 V. N. Staroverov, T. A. Keith, R. Kobayashi, J. Normand, 
 K. Raghavachari, A. P. Rendell, J. C. Burant, S. S. Iyengar, 
 J. Tomasi, M. Cossi, J. M. Millam, M. Klene, C. Adamo, R. Cammi, 
 J. W. Ochterski, R. L. Martin, K. Morokuma, O. Farkas, 
 J. B. Foresman, and D. J. Fox, Gaussian, Inc., Wallingford CT, 2016.
 
 ******************************************
 Gaussian 16:  ES64L-G16RevB.01 20-Dec-2017
                10-Aug-2019 
 ******************************************
 %chk=freq.chk
 ----------------------------------------------------------------------
 # freq(intmodes) iop(1/33=3) b3lyp/6-31g(d,p) geom=connectivity iop(7/
 75=-1)
 ----------------------------------------------------------------------
 1/10=4,18=20,30=1,33=3,38=1,57=2/1,3;
 2/9=110,12=2,17=6,18=5,40=1/2;
 3/5=1,6=6,7=101,11=2,25=1,30=1,71=2,74=-5,140=1/1,2,3;
 4//1;
 5/5=2,38=5,98=1/2;
 8/6=4,10=90,11=11/1;
 11/6=1,8=1,9=11,15=111,16=1/1,2,10;
 10/6=1/2;
 6/7=2,8=2,9=2,10=2,28=1/1;
 7/8=21,10=1,25=1,75=-1/1,2,3,16;
 1/10=4,18=20,30=1,33=3/3;
 99//99;
 ONIOM results not found on unit 2.
 ----
 name
 ----
 TstMul:  ICh=     0
 TstMul:  Mul=     1
 TstMul:  ICh=     0
 TstMul:  Mul=     1
 Symbolic Z-matrix:
 Charge =  0 Multiplicity = 1
 N                     0.        0.        1.44024 
 C                     0.        0.        0.27989 
 C                     0.        0.       -1.18052 
 H                     0.        1.02589  -1.55928 
 H                     0.88845  -0.51295  -1.55928 
 H                    -0.88845  -0.51295  -1.55928 
 
 RdStrC is calling ZToCFu for IStruc=1 NZ=     6.
                                ZToCFu                                
 ---------------------------------------------------------------------
 Center     Atomic      Atomic             Coordinates (Angstroms)
 Number     Number       Type             X           Y           Z
 ---------------------------------------------------------------------
      1          7           0        0.000000    0.000000    1.440238
      2          6           0        0.000000    0.000000    0.279885
      3          6           0        0.000000    0.000000   -1.180523
      4          1           0        0.000000    1.025893   -1.559277
      5          1           0        0.888449   -0.512946   -1.559277
      6          1           0       -0.888449   -0.512946   -1.559277
 ---------------------------------------------------------------------
 Connectivity in DoCon:
 I=     1 IAn=  7 IBond, RBType=     2  3.00
 I=     2 IAn=  6 IBond, RBType=     1  3.00     3  1.00
 I=     3 IAn=  6 IBond, RBType=     2  1.00     4  1.00     5  1.00     6  1.00
 I=     4 IAn=  1 IBond, RBType=     3  1.00
 I=     5 IAn=  1 IBond, RBType=     3  1.00
 I=     6 IAn=  1 IBond, RBType=     3  1.00
 After GenITR:
 ITRead=  0  0  0  0  0  0
 MicOpt= -1 -1 -1 -1 -1 -1
 List IsCon N=      6 M=      2:
 I=      1 Vals=      2      3 |
 I=      2 Vals=      1      3 |      3      1 |
 I=      3 Vals=      2      1 |      4      1 |      5      1 |      6      1 |
 I=      4 Vals=      3      1 |
 I=      5 Vals=      3      1 |
 I=      6 Vals=      3      1 |
 Coordinate R1 contains atom 1 which is already in QM block.
 Coordinate R1 contains atom 2 which is already in QM block.
 Coordinate R2 contains atom 2 which is already in QM block.
 Coordinate R2 contains atom 3 which is already in QM block.
 Coordinate R3 contains atom 3 which is already in QM block.
 Coordinate R3 contains atom 4 which is already in QM block.
 Coordinate R4 contains atom 3 which is already in QM block.
 Coordinate R4 contains atom 5 which is already in QM block.
 Coordinate R5 contains atom 3 which is already in QM block.
 Coordinate R5 contains atom 6 which is already in QM block.
 Coordinate A1 contains atom 2 which is already in QM block.
 Coordinate A1 contains atom 3 which is already in QM block.
 Coordinate A1 contains atom 3 which is already in QM block.
 Coordinate A2 contains atom 2 which is already in QM block.
 Coordinate A2 contains atom 3 which is already in QM block.
 Coordinate A2 contains atom 3 which is already in QM block.
 Coordinate A3 contains atom 2 which is already in QM block.
 Coordinate A3 contains atom 3 which is already in QM block.
 Coordinate A3 contains atom 3 which is already in QM block.
 Coordinate A4 contains atom 4 which is already in QM block.
 Coordinate A4 contains atom 3 which is already in QM block.
 Coordinate A4 contains atom 3 which is already in QM block.
 Coordinate A5 contains atom 4 which is already in QM block.
 Coordinate A5 contains atom 3 which is already in QM block.
 Coordinate A5 contains atom 3 which is already in QM block.
 Coordinate A6 contains atom 5 which is already in QM block.
 Coordinate A6 contains atom 3 which is already in QM block.
 Coordinate A6 contains atom 3 which is already in QM block.
 Coordinate L7 contains atom 1 which is already in QM block.
 Coordinate L7 contains atom 2 which is already in QM block.
 Coordinate L7 contains atom 2 which is already in QM block.
 Coordinate L7 contains atom 4 which is already in QM block.
 Coordinate L8 contains atom 1 which is already in QM block.
 Coordinate L8 contains atom 2 which is already in QM block.
 Coordinate L8 contains atom 2 which is already in QM block.
 Coordinate L8 contains atom 4 which is already in QM block.
 Coordinate D1 contains atom 4 which is already in QM block.
 Coordinate D1 contains atom 3 which is already in QM block.
 Coordinate D1 contains atom 6 which is already in QM block.
 Coordinate D1 contains atom 5 which is already in QM block.
 Saved connectivity
 I=     1 IAn=  7 IBond, RBType=     2  3.00
 I=     2 IAn=  6 IBond, RBType=     1  3.00     3  1.00
 I=     3 IAn=  6 IBond, RBType=     2  1.00     4  1.00     5  1.00     6  1.00
 I=     4 IAn=  1 IBond, RBType=     3  1.00
 I=     5 IAn=  1 IBond, RBType=     3  1.00
 I=     6 IAn=  1 IBond, RBType=     3  1.00
 ITRead=  0  0  0  0  0  0
 MicOpt= -1 -1 -1 -1 -1 -1
 NAtoms=      6 NQM=        6 NQMF=       0 NMMI=      0 NMMIF=      0
                NMic=       0 NMicF=      0.
 No MM parameters found.
 Leave Link  101 at Sat Aug 10 16:32:45 2019, MaxMem=  4294967296 cpu:               5.4 elap:               0.4

 GradGradGradGradGradGradGradGradGradGradGradGradGradGradGradGradGradGrad
 Berny optimization.
 GetPCM: File not found, return IValue=0.
 Optmz: redundant internal coordinate code flag= 1
 Initialization pass.
                           ----------------------------
                           !    Initial Parameters    !
                           ! (Angstroms and Degrees)  !
 --------------------------                            --------------------------
 ! Name  Definition              Value          Derivative Info.                !
 --------------------------------------------------------------------------------
 ! R1    R(1,2)                  1.1604         calculate D2E/DX2 analytically  !
 ! R2    R(2,3)                  1.4604         calculate D2E/DX2 analytically  !
 ! R3    R(3,4)                  1.0936         calculate D2E/DX2 analytically  !
 ! R4    R(3,5)                  1.0936         calculate D2E/DX2 analytically  !
 ! R5    R(3,6)                  1.0936         calculate D2E/DX2 analytically  !
 ! A1    A(2,3,4)              110.2639         calculate D2E/DX2 analytically  !
 ! A2    A(2,3,5)              110.2639         calculate D2E/DX2 analytically  !
 ! A3    A(2,3,6)              110.2639         calculate D2E/DX2 analytically  !
 ! A4    A(4,3,5)              108.6671         calculate D2E/DX2 analytically  !
 ! A5    A(4,3,6)              108.6671         calculate D2E/DX2 analytically  !
 ! A6    A(5,3,6)              108.6671         calculate D2E/DX2 analytically  !
 ! A7    L(1,2,3,4,-1)         180.0            calculate D2E/DX2 analytically  !
 ! A8    L(1,2,3,4,-2)         180.0            calculate D2E/DX2 analytically  !
 ! D1    D(4,3,6,5)            118.0821         calculate D2E/DX2 analytically  !
 --------------------------------------------------------------------------------
 Maximum allowed force set to 1.00D+20.
 Trust Radius=3.00D-01 FncErr=1.00D-07 GrdErr=1.00D-07 EigMax=2.50D+02 EigMin=1.00D-04
 Number of steps in this run=      2 maximum allowed number of steps=      2.
 GradGradGradGradGradGradGradGradGradGradGradGradGradGradGradGradGradGrad

 Leave Link  103 at Sat Aug 10 16:32:45 2019, MaxMem=  4294967296 cpu:               0.1 elap:               0.0
                          Input orientation:                          
 ---------------------------------------------------------------------
 Center     Atomic      Atomic             Coordinates (Angstroms)
 Number     Number       Type             X           Y           Z
 ---------------------------------------------------------------------
      1          7           0        0.000000    0.000000    1.440238
      2          6           0        0.000000    0.000000    0.279885
      3          6           0        0.000000    0.000000   -1.180523
      4          1           0        0.000000    1.025893   -1.559277
      5          1           0        0.888449   -0.512946   -1.559277
      6          1           0       -0.888449   -0.512946   -1.559277
 ---------------------------------------------------------------------
                    Distance matrix (angstroms):
                    1          2          3          4          5
     1  N    0.000000
     2  C    1.160353   0.000000
     3  C    2.620761   1.460408   0.000000
     4  H    3.170102   2.105938   1.093577   0.000000
     5  H    3.170102   2.105937   1.093577   1.776898   0.000000
     6  H    3.170102   2.105937   1.093577   1.776898   1.776898
                    6
     6  H    0.000000
 Stoichiometry    C2H3N
 Framework group  C3[C3(CCN),X(H3)]
 Deg. of freedom     4
 Full point group                 C3      NOp   3
 Largest Abelian subgroup         C1      NOp   1
 Largest concise Abelian subgroup C1      NOp   1
                         Standard orientation:                         
 ---------------------------------------------------------------------
 Center     Atomic      Atomic             Coordinates (Angstroms)
 Number     Number       Type             X           Y           Z
 ---------------------------------------------------------------------
      1          7           0       -0.000000    0.000000    1.440238
      2          6           0       -0.000000    0.000000    0.279885
      3          6           0       -0.000000    0.000000   -1.180523
      4          1           0       -1.025893    0.000000   -1.559277
      5          1           0        0.512946    0.888449   -1.559277
      6          1           0        0.512946   -0.888449   -1.559277
 ---------------------------------------------------------------------
 Rotational constants (GHZ):         158.8205542           9.1676889           9.1676889
 Standard basis: 6-31G(d,p) (6D, 7F)
 There are    60 symmetry adapted cartesian basis functions of A   symmetry.
 There are    60 symmetry adapted basis functions of A   symmetry.
    60 basis functions,   105 primitive gaussians,    60 cartesian basis functions
    11 alpha electrons       11 beta electrons
       nuclear repulsion energy        58.3111694751 Hartrees.
 NAtoms=    6 NActive=    6 NUniq=    4 SFac= 2.25D+00 NAtFMM=   60 NAOKFM=F Big=F
 Integral buffers will be    131072 words long.
 Raffenetti 2 integral format.
 Two-electron integral symmetry is turned on.
 One-electron integrals computed using PRISM.
 NBasis=    60 RedAO= T EigKep=  1.54D-03  NBF=    60
 NBsUse=    60 1.00D-06 EigRej= -1.00D+00 NBFU=    60
 ExpMin= 1.61D-01 ExpMax= 4.17D+03 ExpMxC= 6.27D+02 IAcc=3 IRadAn=         5 AccDes= 0.00D+00
 Harris functional with IExCor=  402 and IRadAn=       5 diagonalized for initial guess.
 HarFok:  IExCor=  402 AccDes= 0.00D+00 IRadAn=         5 IDoV= 1 UseB2=F ITyADJ=14
 ICtDFT=  3500011 ScaDFX=  1.000000  1.000000  1.000000  1.000000
 FoFCou: FMM=F IPFlag=           0 FMFlag=      100000 FMFlg1=           0
         NFxFlg=           0 DoJE=T BraDBF=F KetDBF=T FulRan=T
         wScrn=  0.000000 ICntrl=       500 IOpCl=  0 I1Cent=   200000004 NGrid=           0
         NMat0=    1 NMatS0=      1 NMatT0=    0 NMatD0=    1 NMtDS0=    0 NMtDT0=    0
 Petite list used in FoFCou.
 Initial guess orbital symmetries:
       Occupied  (A) (A) (A) (A) (A) (A) (E) (E) (A) (E) (E)
       Virtual   (E) (E) (A) (A) (E) (E) (A) (E) (E) (A) (E) (E)
                 (A) (E) (E) (A) (E) (E) (A) (A) (E) (E) (A) (E)
                 (E) (A) (E) (E) (E) (E) (A) (E) (E) (A) (E) (E)
                 (A) (E) (E) (A) (E) (E) (A) (A) (E) (E) (A) (A)
                 (A)
 The electronic state of the initial guess is 1-A.
 Keep R1 ints in memory in canonical form, NReq=15836024.
 Requested convergence on RMS density matrix=1.00D-08 within 128 cycles.
 Requested convergence on MAX density matrix=1.00D-06.
 Requested convergence on             energy=1.00D-06.
 No special actions if energy rises.
 Integral accuracy reduced to 1.0D-05 until final iterations.
 Initial convergence to 1.0D-05 achieved.  Increase integral accuracy.
 SCF Done:  E(RB3LYP) =  -132.759146597     A.U. after   13 cycles
            NFock= 13  Conv=0.26D-08     -V/T= 2.0098
 DoSCS=F DFT=T ScalE2(SS,OS)=  1.000000  1.000000
 Range of M.O.s used for correlation:     1    60
 NBasis=    60 NAE=    11 NBE=    11 NFC=     0 NFV=     0
 NROrb=     60 NOA=    11 NOB=    11 NVA=    49 NVB=    49

 **** Warning!!: The largest alpha MO coefficient is  0.10232876D+02

 Symmetrizing basis deriv contribution to polar:
 IMax=3 JMax=2 DiffMx= 0.00D+00
 G2DrvN: will do     7 centers at a time, making    1 passes.
 Calling FoFCou, ICntrl=  3107 FMM=F I1Cent=   0 AccDes= 0.00D+00.
 End of G2Drv F.D. properties file   721 does not exist.
 End of G2Drv F.D. properties file   722 does not exist.
 End of G2Drv F.D. properties file   788 does not exist.
          IDoAtm=111111
          Differentiating once with respect to electric field.
                with respect to dipole field.
          Differentiating once with respect to nuclear coordinates.
 Keep R1 ints in memory in canonical form, NReq=15785447.
          There are    15 degrees of freedom in the 1st order CPHF.  IDoFFX=4 NUNeed=    15.
     15 vectors produced by pass  0 Test12= 3.59D-15 6.67D-09 XBig12= 3.41D+01 3.72D+00.
 AX will form    15 AO Fock derivatives at one time.
     15 vectors produced by pass  1 Test12= 3.59D-15 6.67D-09 XBig12= 1.92D+01 1.67D+00.
     15 vectors produced by pass  2 Test12= 3.59D-15 6.67D-09 XBig12= 1.79D-01 1.39D-01.
     15 vectors produced by pass  3 Test12= 3.59D-15 6.67D-09 XBig12= 2.94D-04 5.60D-03.
     15 vectors produced by pass  4 Test12= 3.59D-15 6.67D-09 XBig12= 4.53D-07 1.91D-04.
     11 vectors produced by pass  5 Test12= 3.59D-15 6.67D-09 XBig12= 3.49D-10 6.29D-06.
      2 vectors produced by pass  6 Test12= 3.59D-15 6.67D-09 XBig12= 3.91D-13 1.82D-07.
      1 vectors produced by pass  7 Test12= 3.59D-15 6.67D-09 XBig12= 3.61D-16 7.48D-09.
 InvSVY:  IOpt=1 It=  1 EMax= 8.88D-16
 Solved reduced A of dimension    89 with    15 vectors.
 Isotropic polarizability for W=    0.000000       23.20 Bohr**3.
 End of Minotr F.D. properties file   721 does not exist.
 End of Minotr F.D. properties file   722 does not exist.
 End of Minotr F.D. properties file   788 does not exist.

 **********************************************************************

            Population analysis using the SCF Density.

 **********************************************************************

 Orbital symmetries:
       Occupied  (A) (A) (A) (A) (A) (A) (E) (E) (A) (E) (E)
       Virtual   (E) (E) (A) (E) (E) (A) (A) (E) (E) (A) (E) (E)
                 (A) (A) (E) (E) (E) (E) (A) (A) (E) (E) (A) (E)
                 (E) (A) (E) (E) (E) (E) (A) (E) (E) (A) (E) (E)
                 (A) (E) (E) (A) (E) (E) (A) (A) (E) (E) (A) (A)
                 (A)
 The electronic state is 1-A.
 Alpha  occ. eigenvalues --  -14.33298 -10.24081 -10.23152  -0.90240  -0.77696
 Alpha  occ. eigenvalues --   -0.51652  -0.46419  -0.46419  -0.35809  -0.32610
 Alpha  occ. eigenvalues --   -0.32610
 Alpha virt. eigenvalues --    0.03685   0.03685   0.08398   0.16030   0.16030
 Alpha virt. eigenvalues --    0.18421   0.28380   0.52510   0.52510   0.57743
 Alpha virt. eigenvalues --    0.61852   0.61852   0.68062   0.78191   0.79623
 Alpha virt. eigenvalues --    0.79623   0.83913   0.83913   0.86643   1.04553
 Alpha virt. eigenvalues --    1.31540   1.31540   1.37763   1.52073   1.52073
 Alpha virt. eigenvalues --    1.58700   1.73753   1.73754   1.94275   1.94275
 Alpha virt. eigenvalues --    1.99767   2.05235   2.05235   2.07882   2.25674
 Alpha virt. eigenvalues --    2.25674   2.53990   2.65895   2.65895   2.77912
 Alpha virt. eigenvalues --    2.94852   2.94852   3.04564   3.27587   3.38561
 Alpha virt. eigenvalues --    3.38561   4.00026   4.19851   4.64323
          Condensed to atoms (all electrons):
               1          2          3          4          5          6
     1  N    6.676216   0.870302  -0.089061  -0.000131  -0.000131  -0.000131
     2  C    0.870302   4.569065   0.306857  -0.025166  -0.025166  -0.025166
     3  C   -0.089061   0.306857   5.024165   0.378274   0.378274   0.378274
     4  H   -0.000131  -0.025166   0.378274   0.530148  -0.025658  -0.025658
     5  H   -0.000131  -0.025166   0.378274  -0.025658   0.530148  -0.025658
     6  H   -0.000131  -0.025166   0.378274  -0.025658  -0.025658   0.530148
 Mulliken charges:
               1
     1  N   -0.457065
     2  C    0.329274
     3  C   -0.376782
     4  H    0.168191
     5  H    0.168191
     6  H    0.168191
 Sum of Mulliken charges =  -0.00000
 Mulliken charges with hydrogens summed into heavy atoms:
               1
     1  N   -0.457065
     2  C    0.329274
     3  C    0.127791
 APT charges:
               1
     1  N   -0.306212
     2  C    0.114830
     3  C    0.083682
     4  H    0.035900
     5  H    0.035900
     6  H    0.035900
 Sum of APT charges =   0.00000
 APT charges with hydrogens summed into heavy atoms:
               1
     1  N   -0.306212
     2  C    0.114830
     3  C    0.191382
 Electronic spatial extent (au):  <R**2>=            161.4618
 Charge=             -0.0000 electrons
 Dipole moment (field-independent basis, Debye):
    X=             -0.0000    Y=              0.0000    Z=             -3.8279  Tot=              3.8279
 Quadrupole moment (field-independent basis, Debye-Ang):
   XX=            -17.2398   YY=            -17.2398   ZZ=            -20.3283
   XY=              0.0000   XZ=             -0.0000   YZ=             -0.0000
 Traceless Quadrupole moment (field-independent basis, Debye-Ang):
   XX=              1.0295   YY=              1.0295   ZZ=             -2.0590
   XY=              0.0000   XZ=             -0.0000   YZ=             -0.0000
 Octapole moment (field-independent basis, Debye-Ang**2):
  XXX=             -0.7475  YYY=              0.0000  ZZZ=            -11.1828  XYY=              0.7475
  XXY=              0.0000  XXZ=             -1.5631  XZZ=             -0.0000  YZZ=              0.0000
  YYZ=             -1.5631  XYZ=             -0.0000
 Hexadecapole moment (field-independent basis, Debye-Ang**3):
 XXXX=            -22.3973 YYYY=            -22.3973 ZZZZ=           -176.7041 XXXY=              0.0000
 XXXZ=              1.2587 YYYX=              0.0000 YYYZ=             -0.0000 ZZZX=             -0.0000
 ZZZY=             -0.0000 XXYY=             -7.4658 XXZZ=            -29.6002 YYZZ=            -29.6002
 XXYZ=             -0.0000 YYXZ=             -1.2587 ZZXY=              0.0000
 N-N= 5.831116947506D+01 E-N=-4.248002362617D+02  KE= 1.314764222712D+02
  Exact polarizability:  17.621  -0.000  17.622  -0.000  -0.000  34.370
 Approx polarizability:  23.342  -0.000  23.342  -0.000   0.000  57.508
 Calling FoFJK, ICntrl=    100127 FMM=F ISym2X=1 I1Cent= 0 IOpClX= 0 NMat=1 NMatS=1 NMatT=0.
 Full mass-weighted force constant matrix:
 Low frequencies ---   -0.0059   -0.0020   -0.0006   10.6578   10.6585   27.8855
 Low frequencies ---  386.7943  386.7952  934.4495
 Diagonal vibrational polarizability:
        0.2937233       0.2937160       0.1286073
 Harmonic frequencies (cm**-1), IR intensities (KM/Mole), Raman scattering
 activities (A**4/AMU), depolarization ratios for plane and unpolarized
 incident light, reduced masses (AMU), force constants (mDyne/A),
 and normal coordinates:
                      1                      2                      3
                      E                      E                      A
 Frequencies --    386.7942               386.7952               934.4495
 Red. masses --      3.7953                 3.7953                 4.5189
 Frc consts  --      0.3345                 0.3346                 2.3249
 IR Inten    --      0.5261                 0.5261                 1.7342
  Atom  AN      X      Y      Z        X      Y      Z        X      Y      Z
     1   7     0.00  -0.24   0.00    -0.24  -0.00  -0.00     0.00   0.00  -0.30
     2   6    -0.00   0.43  -0.00     0.43   0.00   0.00    -0.00  -0.00  -0.19
     3   6     0.00  -0.07  -0.00    -0.07  -0.00   0.00     0.00   0.00   0.42
     4   1     0.00  -0.30  -0.00    -0.29   0.00   0.57    -0.02   0.00   0.48
     5   1     0.00  -0.29  -0.50    -0.30   0.00  -0.29     0.01   0.02   0.48
     6   1    -0.00  -0.29   0.50    -0.30  -0.00  -0.29     0.01  -0.02   0.48
                      4                      5                      6
                      E                      E                      A
 Frequencies --   1063.7746              1063.7748              1421.4758
 Red. masses --      1.4446                 1.4446                 1.2371
 Frc consts  --      0.9632                 0.9632                 1.4728
 IR Inten    --      3.1271                 3.1272                 2.2507
  Atom  AN      X      Y      Z        X      Y      Z        X      Y      Z
     1   7    -0.00  -0.02  -0.00     0.02  -0.00   0.00     0.00   0.00   0.01
     2   6     0.00   0.12  -0.00    -0.12   0.00   0.00    -0.00  -0.00   0.00
     3   6    -0.00  -0.16   0.00     0.16  -0.00  -0.00     0.00  -0.00  -0.14
     4   1     0.00   0.36  -0.00    -0.12   0.00   0.71    -0.24   0.00   0.52
     5   1    -0.10   0.18   0.61    -0.30   0.10  -0.35     0.12   0.20   0.52
     6   1     0.10   0.18  -0.61    -0.30  -0.10  -0.35     0.12  -0.20   0.52
                      7                      8                      9
                      E                      E                      A
 Frequencies --   1485.0500              1485.0506              2379.3576
 Red. masses --      1.0390                 1.0390                12.5600
 Frc consts  --      1.3501                 1.3501                41.8948
 IR Inten    --      9.8457                 9.8456                 7.6946
  Atom  AN      X      Y      Z        X      Y      Z        X      Y      Z
     1   7     0.00  -0.00   0.00     0.00   0.00  -0.00     0.00  -0.00  -0.58
     2   6    -0.02  -0.00  -0.00     0.00  -0.02   0.00    -0.00   0.00   0.80
     3   6    -0.05   0.00  -0.00    -0.00  -0.05   0.00     0.00   0.00  -0.10
     4   1    -0.17   0.00   0.38     0.00   0.70  -0.00     0.01  -0.00  -0.06
     5   1     0.48  -0.38  -0.19    -0.38   0.05  -0.33    -0.01  -0.01  -0.06
     6   1     0.48   0.38  -0.19     0.38   0.05   0.33    -0.01   0.01  -0.06
                     10                     11                     12
                      A                      E                      E
 Frequencies --   3060.6679              3137.7771              3137.7771
 Red. masses --      1.0340                 1.1029                 1.1029
 Frc consts  --      5.7072                 6.3975                 6.3975
 IR Inten    --      2.9967                 1.6736                 1.6736
  Atom  AN      X      Y      Z        X      Y      Z        X      Y      Z
     1   7     0.00   0.00   0.00     0.00  -0.00  -0.00    -0.00  -0.00  -0.00
     2   6    -0.00   0.00  -0.00     0.00  -0.00  -0.00    -0.00  -0.00  -0.00
     3   6     0.00  -0.00  -0.05    -0.00  -0.09   0.00    -0.09   0.00   0.00
     4   1     0.54   0.00   0.19     0.00  -0.02   0.00     0.76  -0.00   0.28
     5   1    -0.27  -0.47   0.19     0.34   0.57  -0.24     0.18   0.34  -0.14
     6   1    -0.27   0.47   0.19    -0.34   0.57   0.24     0.18  -0.34  -0.14

 -------------------
 - Thermochemistry -
 -------------------
 Temperature   298.150 Kelvin.  Pressure   1.00000 Atm.
 Atom     1 has atomic number  7 and mass  14.00307
 Atom     2 has atomic number  6 and mass  12.00000
 Atom     3 has atomic number  6 and mass  12.00000
 Atom     4 has atomic number  1 and mass   1.00783
 Atom     5 has atomic number  1 and mass   1.00783
 Atom     6 has atomic number  1 and mass   1.00783
 Molecular mass:    41.02655 amu.
 Principal axes and moments of inertia in atomic units:
                           1         2         3
     Eigenvalues --    11.36340 196.85891 196.85891
           X            0.00000   0.99972   0.02356
           Y            0.00000  -0.02356   0.99972
           Z            1.00000   0.00000  -0.00000
 This molecule is a prolate symmetric top.
 Rotational symmetry number  3.
 Rotational temperatures (Kelvin)      7.62218     0.43998     0.43998
 Rotational constants (GHZ):         158.82055     9.16769     9.16769
 Zero-point vibrational energy     119284.1 (Joules/Mol)
                                   28.50958 (Kcal/Mol)
 Warning -- explicit consideration of   2 degrees of freedom as
           vibrations may cause significant error
 Vibrational temperatures:    556.51   556.51  1344.46  1530.53  1530.53
          (Kelvin)           2045.19  2136.66  2136.66  3423.36  4403.62
                             4514.56  4514.56
 
 Zero-point correction=                           0.045433 (Hartree/Particle)
 Thermal correction to Energy=                    0.049033
 Thermal correction to Enthalpy=                  0.049977
 Thermal correction to Gibbs Free Energy=         0.022454
 Sum of electronic and zero-point Energies=           -132.713714
 Sum of electronic and thermal Energies=              -132.710114
 Sum of electronic and thermal Enthalpies=            -132.709170
 Sum of electronic and thermal Free Energies=         -132.736693
 
                     E (Thermal)             CV                S
                      KCal/Mol        Cal/Mol-Kelvin    Cal/Mol-Kelvin
 Total                   30.768             10.297             57.927
 Electronic               0.000              0.000              0.000
 Translational            0.889              2.981             37.062
 Rotational               0.889              2.981             18.532
 Vibrational             28.991              4.336              2.333
 Vibration     1          0.755              1.498              1.012
 Vibration     2          0.755              1.498              1.012
                       Q            Log10(Q)             Ln(Q)
 Total Bot       0.469917D-10        -10.327979        -23.781050
 Total V=0       0.371273D+11         10.569693         24.337618
 Vib (Bot)       0.181692D-20        -20.740664        -47.757143
 Vib (Bot)    1  0.465213D+00         -0.332348         -0.765260
 Vib (Bot)    2  0.465211D+00         -0.332350         -0.765263
 Vib (V=0)       0.143552D+01          0.157008          0.361525
 Vib (V=0)    1  0.118295D+01          0.072967          0.168013
 Vib (V=0)    2  0.118295D+01          0.072967          0.168012
 Electronic      0.100000D+01          0.000000          0.000000
 Translational   0.103288D+08          7.014051         16.150450
 Rotational      0.250400D+04          3.398634          7.825643
                           ----------------------------
                           ! Normal Mode     1        !
 --------------------------                            --------------------------
 ! Name  Definition              Value          Relative Weight (%)             !
 --------------------------------------------------------------------------------
 ! R1    R(1,2)                  0.0                     0.0                    !
 ! R2    R(2,3)                  0.0                     0.0                    !
 ! R3    R(3,4)                  0.0                     0.0                    !
 ! R4    R(3,5)                 -0.0043                  0.3                    !
 ! R5    R(3,6)                  0.0043                  0.3                    !
 ! A1    A(2,3,4)                0.0                     0.0                    !
 ! A2    A(2,3,5)                0.0994                  8.1                    !
 ! A3    A(2,3,6)               -0.0994                  8.1                    !
 ! A4    A(4,3,5)                0.0095                  0.8                    !
 ! A5    A(4,3,6)               -0.0095                  0.8                    !
 ! A6    A(5,3,6)                0.0                     0.0                    !
 ! A7    L(1,2,3,4,-1)           0.0                     0.0                    !
 ! A8    L(1,2,3,4,-2)           0.9934                 81.0                    !
 ! D1    D(4,3,6,5)              0.006                   0.5                    !
 --------------------------------------------------------------------------------
                           ----------------------------
                           ! Normal Mode     2        !
 --------------------------                            --------------------------
 ! Name  Definition              Value          Relative Weight (%)             !
 --------------------------------------------------------------------------------
 ! R1    R(1,2)                  0.0                     0.0                    !
 ! R2    R(2,3)                  0.0                     0.0                    !
 ! R3    R(3,4)                  0.0049                  0.7                    !
 ! R4    R(3,5)                 -0.0025                  0.3                    !
 ! R5    R(3,6)                 -0.0025                  0.3                    !
 ! A1    A(2,3,4)               -0.1148                 15.3                    !
 ! A2    A(2,3,5)                0.0574                  7.7                    !
 ! A3    A(2,3,6)                0.0574                  7.7                    !
 ! A4    A(4,3,5)               -0.0055                  0.7                    !
 ! A5    A(4,3,6)               -0.0055                  0.7                    !
 ! A6    A(5,3,6)                0.011                   1.5                    !
 ! A7    L(1,2,3,4,-1)          -0.4839                 64.6                    !
 ! A8    L(1,2,3,4,-2)           0.0                     0.0                    !
 ! D1    D(4,3,6,5)             -0.0035                  0.5                    !
 --------------------------------------------------------------------------------
                           ----------------------------
                           ! Normal Mode     3        !
 --------------------------                            --------------------------
 ! Name  Definition              Value          Relative Weight (%)             !
 --------------------------------------------------------------------------------
 ! R1    R(1,2)                 -0.1054                 10.6                    !
 ! R2    R(2,3)                 -0.6136                 61.9                    !
 ! R3    R(3,4)                 -0.0031                  0.3                    !
 ! R4    R(3,5)                 -0.0031                  0.3                    !
 ! R5    R(3,6)                 -0.0031                  0.3                    !
 ! A1    A(2,3,4)               -0.031                   3.1                    !
 ! A2    A(2,3,5)               -0.031                   3.1                    !
 ! A3    A(2,3,6)               -0.031                   3.1                    !
 ! A4    A(4,3,5)                0.0319                  3.2                    !
 ! A5    A(4,3,6)                0.0319                  3.2                    !
 ! A6    A(5,3,6)                0.0319                  3.2                    !
 ! A7    L(1,2,3,4,-1)           0.0                     0.0                    !
 ! A8    L(1,2,3,4,-2)           0.0                     0.0                    !
 ! D1    D(4,3,6,5)              0.0742                  7.5                    !
 --------------------------------------------------------------------------------
                           ----------------------------
                           ! Normal Mode     4        !
 --------------------------                            --------------------------
 ! Name  Definition              Value          Relative Weight (%)             !
 --------------------------------------------------------------------------------
 ! R1    R(1,2)                  0.0                     0.0                    !
 ! R2    R(2,3)                  0.0                     0.0                    !
 ! R3    R(3,4)                  0.0                     0.0                    !
 ! R4    R(3,5)                  0.0128                  0.8                    !
 ! R5    R(3,6)                 -0.0128                  0.8                    !
 ! A1    A(2,3,4)                0.0001                  0.0                    !
 ! A2    A(2,3,5)               -0.4052                 25.6                    !
 ! A3    A(2,3,6)                0.4052                 25.6                    !
 ! A4    A(4,3,5)               -0.1552                  9.8                    !
 ! A5    A(4,3,6)                0.1553                  9.8                    !
 ! A6    A(5,3,6)                0.0                     0.0                    !
 ! A7    L(1,2,3,4,-1)           0.0                     0.0                    !
 ! A8    L(1,2,3,4,-2)           0.339                  21.4                    !
 ! D1    D(4,3,6,5)             -0.0983                  6.2                    !
 --------------------------------------------------------------------------------
                           ----------------------------
                           ! Normal Mode     5        !
 --------------------------                            --------------------------
 ! Name  Definition              Value          Relative Weight (%)             !
 --------------------------------------------------------------------------------
 ! R1    R(1,2)                  0.0                     0.0                    !
 ! R2    R(2,3)                  0.0                     0.0                    !
 ! R3    R(3,4)                  0.0148                  1.0                    !
 ! R4    R(3,5)                 -0.0074                  0.5                    !
 ! R5    R(3,6)                 -0.0074                  0.5                    !
 ! A1    A(2,3,4)               -0.4679                 30.3                    !
 ! A2    A(2,3,5)                0.2339                 15.1                    !
 ! A3    A(2,3,6)                0.234                  15.1                    !
 ! A4    A(4,3,5)               -0.0897                  5.8                    !
 ! A5    A(4,3,6)               -0.0896                  5.8                    !
 ! A6    A(5,3,6)                0.1793                 11.6                    !
 ! A7    L(1,2,3,4,-1)           0.1652                 10.7                    !
 ! A8    L(1,2,3,4,-2)           0.0                     0.0                    !
 ! D1    D(4,3,6,5)             -0.0568                  3.7                    !
 --------------------------------------------------------------------------------
                           ----------------------------
                           ! Normal Mode     6        !
 --------------------------                            --------------------------
 ! Name  Definition              Value          Relative Weight (%)             !
 --------------------------------------------------------------------------------
 ! R1    R(1,2)                  0.0088                  0.3                    !
 ! R2    R(2,3)                  0.1452                  4.7                    !
 ! R3    R(3,4)                 -0.0085                  0.3                    !
 ! R4    R(3,5)                 -0.0085                  0.3                    !
 ! R5    R(3,6)                 -0.0085                  0.3                    !
 ! A1    A(2,3,4)               -0.3411                 11.1                    !
 ! A2    A(2,3,5)               -0.3411                 11.1                    !
 ! A3    A(2,3,6)               -0.3411                 11.1                    !
 ! A4    A(4,3,5)                0.3509                 11.4                    !
 ! A5    A(4,3,6)                0.3509                 11.4                    !
 ! A6    A(5,3,6)                0.3509                 11.4                    !
 ! A7    L(1,2,3,4,-1)           0.0                     0.0                    !
 ! A8    L(1,2,3,4,-2)           0.0                     0.0                    !
 ! D1    D(4,3,6,5)              0.8151                 26.5                    !
 --------------------------------------------------------------------------------
                           ----------------------------
                           ! Normal Mode     7        !
 --------------------------                            --------------------------
 ! Name  Definition              Value          Relative Weight (%)             !
 --------------------------------------------------------------------------------
 ! R1    R(1,2)                  0.0                     0.0                    !
 ! R2    R(2,3)                  0.0                     0.0                    !
 ! R3    R(3,4)                 -0.0172                  0.9                    !
 ! R4    R(3,5)                  0.0086                  0.5                    !
 ! R5    R(3,6)                  0.0086                  0.5                    !
 ! A1    A(2,3,4)               -0.1826                  9.7                    !
 ! A2    A(2,3,5)                0.0913                  4.9                    !
 ! A3    A(2,3,6)                0.0913                  4.9                    !
 ! A4    A(4,3,5)                0.319                  17.0                    !
 ! A5    A(4,3,6)                0.3191                 17.0                    !
 ! A6    A(5,3,6)               -0.6381                 33.9                    !
 ! A7    L(1,2,3,4,-1)           0.0022                  0.1                    !
 ! A8    L(1,2,3,4,-2)           0.0                     0.0                    !
 ! D1    D(4,3,6,5)              0.202                  10.7                    !
 --------------------------------------------------------------------------------
                           ----------------------------
                           ! Normal Mode     8        !
 --------------------------                            --------------------------
 ! Name  Definition              Value          Relative Weight (%)             !
 --------------------------------------------------------------------------------
 ! R1    R(1,2)                  0.0                     0.0                    !
 ! R2    R(2,3)                  0.0                     0.0                    !
 ! R3    R(3,4)                  0.0                     0.0                    !
 ! R4    R(3,5)                  0.0149                  0.8                    !
 ! R5    R(3,6)                 -0.0149                  0.8                    !
 ! A1    A(2,3,4)                0.0                     0.0                    !
 ! A2    A(2,3,5)                0.1581                  8.8                    !
 ! A3    A(2,3,6)               -0.1581                  8.8                    !
 ! A4    A(4,3,5)               -0.5526                 30.6                    !
 ! A5    A(4,3,6)                0.5526                 30.6                    !
 ! A6    A(5,3,6)                0.0                     0.0                    !
 ! A7    L(1,2,3,4,-1)           0.0                     0.0                    !
 ! A8    L(1,2,3,4,-2)          -0.0046                  0.3                    !
 ! D1    D(4,3,6,5)             -0.3499                 19.4                    !
 --------------------------------------------------------------------------------
                           ----------------------------
                           ! Normal Mode     9        !
 --------------------------                            --------------------------
 ! Name  Definition              Value          Relative Weight (%)             !
 --------------------------------------------------------------------------------
 ! R1    R(1,2)                 -1.3826                 55.5                    !
 ! R2    R(2,3)                  0.8982                 36.1                    !
 ! R3    R(3,4)                 -0.0237                  1.0                    !
 ! R4    R(3,5)                 -0.0237                  1.0                    !
 ! R5    R(3,6)                 -0.0237                  1.0                    !
 ! A1    A(2,3,4)               -0.0162                  0.7                    !
 ! A2    A(2,3,5)               -0.0162                  0.7                    !
 ! A3    A(2,3,6)               -0.0162                  0.7                    !
 ! A4    A(4,3,5)                0.0167                  0.7                    !
 ! A5    A(4,3,6)                0.0167                  0.7                    !
 ! A6    A(5,3,6)                0.0167                  0.7                    !
 ! A7    L(1,2,3,4,-1)           0.0                     0.0                    !
 ! A8    L(1,2,3,4,-2)           0.0                     0.0                    !
 ! D1    D(4,3,6,5)              0.0388                  1.6                    !
 --------------------------------------------------------------------------------
                           ----------------------------
                           ! Normal Mode    10        !
 --------------------------                            --------------------------
 ! Name  Definition              Value          Relative Weight (%)             !
 --------------------------------------------------------------------------------
 ! R1    R(1,2)                  0.0046                  0.2                    !
 ! R2    R(2,3)                  0.0463                  2.3                    !
 ! R3    R(3,4)                 -0.5935                 29.8                    !
 ! R4    R(3,5)                 -0.5935                 29.8                    !
 ! R5    R(3,6)                 -0.5935                 29.8                    !
 ! A1    A(2,3,4)               -0.0186                  0.9                    !
 ! A2    A(2,3,5)               -0.0186                  0.9                    !
 ! A3    A(2,3,6)               -0.0186                  0.9                    !
 ! A4    A(4,3,5)                0.0192                  1.0                    !
 ! A5    A(4,3,6)                0.0192                  1.0                    !
 ! A6    A(5,3,6)                0.0192                  1.0                    !
 ! A7    L(1,2,3,4,-1)           0.0                     0.0                    !
 ! A8    L(1,2,3,4,-2)           0.0                     0.0                    !
 ! D1    D(4,3,6,5)              0.0445                  2.2                    !
 --------------------------------------------------------------------------------
                           ----------------------------
                           ! Normal Mode    11        !
 --------------------------                            --------------------------
 ! Name  Definition              Value          Relative Weight (%)             !
 --------------------------------------------------------------------------------
 ! R1    R(1,2)                  0.0                     0.0                    !
 ! R2    R(2,3)                  0.0                     0.0                    !
 ! R3    R(3,4)                  0.0                     0.0                    !
 ! R4    R(3,5)                  0.7794                 42.9                    !
 ! R5    R(3,6)                 -0.7794                 42.9                    !
 ! A1    A(2,3,4)                0.0                     0.0                    !
 ! A2    A(2,3,5)               -0.0419                  2.3                    !
 ! A3    A(2,3,6)                0.0419                  2.3                    !
 ! A4    A(4,3,5)               -0.0393                  2.2                    !
 ! A5    A(4,3,6)                0.0393                  2.2                    !
 ! A6    A(5,3,6)                0.0                     0.0                    !
 ! A7    L(1,2,3,4,-1)           0.0                     0.0                    !
 ! A8    L(1,2,3,4,-2)           0.0687                  3.8                    !
 ! D1    D(4,3,6,5)             -0.0249                  1.4                    !
 --------------------------------------------------------------------------------
                           ----------------------------
                           ! Normal Mode    12        !
 --------------------------                            --------------------------
 ! Name  Definition              Value          Relative Weight (%)             !
 --------------------------------------------------------------------------------
 ! R1    R(1,2)                  0.0                     0.0                    !
 ! R2    R(2,3)                  0.0                     0.0                    !
 ! R3    R(3,4)                 -0.9                    44.2                    !
 ! R4    R(3,5)                  0.45                   22.1                    !
 ! R5    R(3,6)                  0.45                   22.1                    !
 ! A1    A(2,3,4)                0.0484                  2.4                    !
 ! A2    A(2,3,5)               -0.0242                  1.2                    !
 ! A3    A(2,3,6)               -0.0242                  1.2                    !
 ! A4    A(4,3,5)                0.0227                  1.1                    !
 ! A5    A(4,3,6)                0.0227                  1.1                    !
 ! A6    A(5,3,6)               -0.0454                  2.2                    !
 ! A7    L(1,2,3,4,-1)          -0.0335                  1.6                    !
 ! A8    L(1,2,3,4,-2)           0.0                     0.0                    !
 ! D1    D(4,3,6,5)              0.0144                  0.7                    !
 --------------------------------------------------------------------------------
 Max01P=     10 Av01P=    6.42 Stan. Dev.=    2.27
 Max05P=      7 Av05P=    4.17 Stan. Dev.=    1.80
 Max10P=      7 Av10P=    3.08 Stan. Dev.=    1.62
 MaxNDP=     14 AvNDP=   14.00 Stan. Dev.=    0.00
 ***** Axes restored to original set *****
 -------------------------------------------------------------------
 Center     Atomic                   Forces (Hartrees/Bohr)
 Number     Number              X              Y              Z
 -------------------------------------------------------------------
      1        7           0.000000000    0.000013516   -0.000209987
      2        6          -0.000000000   -0.000011673    0.000149444
      3        6           0.000000000   -0.000002036    0.000011220
      4        1          -0.000000017   -0.000056953    0.000016622
      5        1          -0.000049449    0.000028588    0.000016350
      6        1           0.000049466    0.000028558    0.000016350
 -------------------------------------------------------------------
 Cartesian Forces:  Max     0.000209987 RMS     0.000065598
 FormGI is forming the generalized inverse of G from B-inverse, IUseBI=4.

 GradGradGradGradGradGradGradGradGradGradGradGradGradGradGradGradGradGrad
 Berny optimization.
 GetPCM: File not found, return IValue=0.
 Optmz: redundant internal coordinate code flag= 1
 IB Matrix in FormBX:
              1            2            3            4            5
     1            1            2            3            3            3
     2            2            3            4            5            6
     3            0            0            0            0            0
     4            0            0            0            0            0
              6            7            8            9           10
     1            2            2            2            4            4
     2            3            3            3            3            3
     3            4            5            6            5            6
     4            0            0            0            0            0
             11           12           13           14
     1            5            1            1            4
     2            3            2            2            3
     3            6            3            3            6
     4            0            4            4            5
 B Matrix in FormBX:
                 1             2             3             4             5 
      1   0.000000D+00  0.000000D+00  0.000000D+00 -0.812425D+00  0.812425D+00
      2   0.000000D+00  0.000000D+00 -0.938108D+00  0.469054D+00  0.469054D+00
      3   0.100000D+01  0.100000D+01  0.346344D+00  0.346344D+00  0.346344D+00
      4   0.000000D+00  0.000000D+00  0.000000D+00  0.812425D+00 -0.812425D+00
      5   0.000000D+00  0.000000D+00  0.938108D+00 -0.469054D+00 -0.469054D+00
      6  -0.100000D+01 -0.100000D+01 -0.346344D+00 -0.346344D+00 -0.346344D+00
      7   0.000000D+00  0.000000D+00  0.000000D+00  0.000000D+00  0.000000D+00
      8   0.000000D+00  0.000000D+00  0.000000D+00  0.000000D+00  0.000000D+00
      9   0.000000D+00  0.000000D+00  0.000000D+00  0.000000D+00  0.000000D+00
     10   0.000000D+00  0.000000D+00  0.000000D+00  0.000000D+00  0.000000D+00
     11   0.000000D+00  0.000000D+00  0.000000D+00  0.000000D+00  0.000000D+00
     12   0.000000D+00  0.000000D+00  0.000000D+00  0.000000D+00  0.000000D+00
                 6             7             8             9            10 
      1   0.000000D+00 -0.313803D+00  0.313803D+00 -0.414958D+00  0.414958D+00
      2  -0.362349D+00  0.181174D+00  0.181174D+00  0.862145D-01  0.862145D-01
      3   0.000000D+00  0.000000D+00  0.000000D+00  0.233521D+00  0.233521D+00
      4   0.000000D+00  0.458944D+00 -0.458944D+00  0.547773D+00 -0.547773D+00
      5   0.529943D+00 -0.264972D+00 -0.264972D+00  0.316257D+00  0.316257D+00
      6   0.453946D+00  0.453946D+00  0.453946D+00 -0.467041D+00 -0.467041D+00
      7   0.000000D+00 -0.145141D+00  0.145141D+00 -0.132815D+00  0.132815D+00
      8  -0.167594D+00  0.837972D-01  0.837972D-01 -0.402471D+00 -0.402471D+00
      9  -0.453946D+00 -0.453946D+00 -0.453946D+00  0.233521D+00  0.233521D+00
     10   0.000000D+00  0.000000D+00  0.000000D+00  0.000000D+00  0.000000D+00
     11   0.000000D+00  0.000000D+00  0.000000D+00  0.000000D+00  0.000000D+00
     12   0.000000D+00  0.000000D+00  0.000000D+00  0.000000D+00  0.000000D+00
                11            12            13            14 
      1   0.282143D+00  0.000000D+00 -0.936169D+00 -0.262749D+00
      2   0.316257D+00 -0.456048D+00  0.000000D+00  0.151698D+00
      3   0.233521D+00  0.000000D+00  0.000000D+00  0.410890D+00
      4   0.000000D+00  0.000000D+00  0.167999D+01  0.346847D+00
      5  -0.632514D+00  0.818397D+00  0.000000D+00  0.200252D+00
      6  -0.467041D+00  0.000000D+00  0.000000D+00 -0.108481D+01
      7  -0.282143D+00  0.000000D+00 -0.743824D+00 -0.840979D-01
      8   0.316257D+00 -0.362349D+00  0.000000D+00 -0.485539D-01
      9   0.233521D+00  0.000000D+00  0.000000D+00  0.263026D+00
     10   0.000000D+00  0.000000D+00  0.000000D+00  0.000000D+00
     11   0.000000D+00  0.000000D+00  0.000000D+00 -0.303397D+00
     12   0.000000D+00  0.000000D+00  0.000000D+00  0.410890D+00
 IB Matrix in Red2BG:
              1            2            3            4            5
     1            1            2            3            3            3
     2            2            3            4            5            6
     3            0            0            0            0            0
     4            0            0            0            0            0
              6            7            8            9           10
     1            2            2            2            4            4
     2            3            3            3            3            3
     3            4            5            6            5            6
     4            0            0            0            0            0
             11           12           13           14
     1            5            1            1            4
     2            3            2            2            3
     3            6            3            3            6
     4            0            4            4            5
 B Matrix in Red2BG:
                 1             2             3             4             5 
      1   0.000000D+00  0.000000D+00  0.000000D+00 -0.812425D+00  0.812425D+00
      2   0.000000D+00  0.000000D+00 -0.938108D+00  0.469054D+00  0.469054D+00
      3   0.100000D+01  0.100000D+01  0.346344D+00  0.346344D+00  0.346344D+00
      4   0.000000D+00  0.000000D+00  0.000000D+00  0.812425D+00 -0.812425D+00
      5   0.000000D+00  0.000000D+00  0.938108D+00 -0.469054D+00 -0.469054D+00
      6  -0.100000D+01 -0.100000D+01 -0.346344D+00 -0.346344D+00 -0.346344D+00
      7   0.000000D+00  0.000000D+00  0.000000D+00  0.000000D+00  0.000000D+00
      8   0.000000D+00  0.000000D+00  0.000000D+00  0.000000D+00  0.000000D+00
      9   0.000000D+00  0.000000D+00  0.000000D+00  0.000000D+00  0.000000D+00
     10   0.000000D+00  0.000000D+00  0.000000D+00  0.000000D+00  0.000000D+00
     11   0.000000D+00  0.000000D+00  0.000000D+00  0.000000D+00  0.000000D+00
     12   0.000000D+00  0.000000D+00  0.000000D+00  0.000000D+00  0.000000D+00
                 6             7             8             9            10 
      1   0.000000D+00 -0.313803D+00  0.313803D+00 -0.414958D+00  0.414958D+00
      2  -0.362349D+00  0.181174D+00  0.181174D+00  0.862145D-01  0.862145D-01
      3   0.000000D+00  0.000000D+00  0.000000D+00  0.233521D+00  0.233521D+00
      4   0.000000D+00  0.458944D+00 -0.458944D+00  0.547773D+00 -0.547773D+00
      5   0.529943D+00 -0.264972D+00 -0.264972D+00  0.316257D+00  0.316257D+00
      6   0.453946D+00  0.453946D+00  0.453946D+00 -0.467041D+00 -0.467041D+00
      7   0.000000D+00 -0.145141D+00  0.145141D+00 -0.132815D+00  0.132815D+00
      8  -0.167594D+00  0.837972D-01  0.837972D-01 -0.402471D+00 -0.402471D+00
      9  -0.453946D+00 -0.453946D+00 -0.453946D+00  0.233521D+00  0.233521D+00
     10   0.000000D+00  0.000000D+00  0.000000D+00  0.000000D+00  0.000000D+00
     11   0.000000D+00  0.000000D+00  0.000000D+00  0.000000D+00  0.000000D+00
     12   0.000000D+00  0.000000D+00  0.000000D+00  0.000000D+00  0.000000D+00
                11            12            13            14 
      1   0.282143D+00  0.000000D+00 -0.936169D+00 -0.262749D+00
      2   0.316257D+00 -0.456048D+00  0.000000D+00  0.151698D+00
      3   0.233521D+00  0.000000D+00  0.000000D+00  0.410890D+00
      4   0.000000D+00  0.000000D+00  0.167999D+01  0.346847D+00
      5  -0.632514D+00  0.818397D+00  0.000000D+00  0.200252D+00
      6  -0.467041D+00  0.000000D+00  0.000000D+00 -0.108481D+01
      7  -0.282143D+00  0.000000D+00 -0.743824D+00 -0.840979D-01
      8   0.316257D+00 -0.362349D+00  0.000000D+00 -0.485539D-01
      9   0.233521D+00  0.000000D+00  0.000000D+00  0.263026D+00
     10   0.000000D+00  0.000000D+00  0.000000D+00  0.000000D+00
     11   0.000000D+00  0.000000D+00  0.000000D+00 -0.303397D+00
     12   0.000000D+00  0.000000D+00  0.000000D+00  0.410890D+00
 G Matrix: 
                 1             2             3             4             5 
      1   0.200000D+01 -0.100000D+01  0.000000D+00  0.000000D+00  0.000000D+00
      2  -0.100000D+01  0.200000D+01 -0.346344D+00 -0.346344D+00 -0.346344D+00
      3   0.000000D+00 -0.346344D+00  0.200000D+01 -0.320069D+00 -0.320069D+00
      4   0.000000D+00 -0.346344D+00 -0.320069D+00  0.200000D+01 -0.320069D+00
      5   0.000000D+00 -0.346344D+00 -0.320069D+00 -0.320069D+00  0.200000D+01
      6   0.000000D+00 -0.453946D+00 -0.339922D+00  0.405793D+00  0.405793D+00
      7   0.000000D+00 -0.453946D+00  0.405793D+00 -0.339922D+00  0.405793D+00
      8   0.000000D+00 -0.453946D+00  0.405793D+00  0.405793D+00 -0.339922D+00
      9   0.000000D+00  0.467041D+00 -0.458440D+00 -0.458440D+00  0.431609D+00
     10   0.000000D+00  0.467041D+00 -0.458440D+00  0.431609D+00 -0.458440D+00
     11   0.000000D+00  0.467041D+00  0.431609D+00 -0.458440D+00 -0.458440D+00
     12   0.000000D+00  0.000000D+00  0.339922D+00 -0.169961D+00 -0.169961D+00
     13   0.000000D+00  0.000000D+00  0.000000D+00  0.604301D+00 -0.604301D+00
     14   0.000000D+00  0.108481D+01 -0.563575D+00 -0.563575D+00  0.000000D+00
                 6             7             8             9            10 
      1   0.000000D+00  0.000000D+00  0.000000D+00  0.000000D+00  0.000000D+00
      2  -0.453946D+00 -0.453946D+00 -0.453946D+00  0.467041D+00  0.467041D+00
      3  -0.339922D+00  0.405793D+00  0.405793D+00 -0.458440D+00 -0.458440D+00
      4   0.405793D+00 -0.339922D+00  0.405793D+00 -0.458440D+00  0.431609D+00
      5   0.405793D+00  0.405793D+00 -0.339922D+00  0.431609D+00 -0.458440D+00
      6   0.852359D+00 -0.119471D-05 -0.119471D-05 -0.164868D+00 -0.164868D+00
      7  -0.119471D-05  0.852359D+00 -0.119471D-05 -0.164868D+00 -0.547208D+00
      8  -0.119471D-05 -0.119471D-05  0.852359D+00 -0.547208D+00 -0.164868D+00
      9  -0.164868D+00 -0.164868D+00 -0.547208D+00  0.108651D+01 -0.921347D-01
     10  -0.164868D+00 -0.547208D+00 -0.164868D+00 -0.921347D-01  0.108651D+01
     11  -0.547208D+00 -0.164868D+00 -0.164868D+00 -0.921347D-01 -0.921347D-01
     12  -0.488570D+00  0.244285D+00  0.244285D+00 -0.114595D+00 -0.114595D+00
     13   0.000000D+00 -0.868562D+00  0.868562D+00 -0.407447D+00  0.407447D+00
     14  -0.598268D+00 -0.598268D+00 -0.840363D+00  0.119609D+01  0.449781D+00
                11            12            13            14 
      1   0.000000D+00  0.000000D+00  0.000000D+00  0.000000D+00
      2   0.467041D+00  0.000000D+00  0.000000D+00  0.108481D+01
      3   0.431609D+00  0.339922D+00  0.000000D+00 -0.563575D+00
      4  -0.458440D+00 -0.169961D+00  0.604301D+00 -0.563575D+00
      5  -0.458440D+00 -0.169961D+00 -0.604301D+00  0.000000D+00
      6  -0.547208D+00 -0.488570D+00  0.000000D+00 -0.598268D+00
      7  -0.164868D+00  0.244285D+00 -0.868562D+00 -0.598268D+00
      8  -0.164868D+00  0.244285D+00  0.868562D+00 -0.840363D+00
      9  -0.921347D-01 -0.114595D+00 -0.407447D+00  0.119609D+01
     10  -0.921347D-01 -0.114595D+00  0.407447D+00  0.449781D+00
     11   0.108651D+01  0.229191D+00  0.000000D+00  0.449781D+00
     12   0.229191D+00  0.100905D+01  0.000000D+00 -0.725612D-01
     13   0.000000D+00  0.000000D+00  0.425207D+01 -0.257993D+00
     14   0.449781D+00 -0.725612D-01 -0.257993D+00  0.193758D+01
 Red2BG:  D1=  2.74D-01 OD1=  7.57D-15 B2RMS=  0.00D+00 IAprox=1
 Red2BG is reusing G-inverse.
 G-Inverse: 
                1             2             3             4             5 
      1  0.833333D+00
      2  0.666667D+00  0.133333D+01
      3  0.577240D-01  0.115448D+00  0.811168D+00
      4  0.577240D-01  0.115448D+00  0.644273D-01  0.811168D+00
      5  0.577240D-01  0.115448D+00  0.644273D-01  0.644273D-01  0.811168D+00
      6  0.907451D-01  0.181490D+00  0.363462D+00 -0.205755D+00 -0.251994D+00
      7  0.907451D-01  0.181490D+00 -0.205755D+00  0.363462D+00 -0.251994D+00
      8  0.907451D-01  0.181490D+00 -0.205755D+00 -0.205755D+00  0.317222D+00
      9 -0.211289D-01 -0.422578D-01  0.112536D+00  0.112536D+00 -0.203119D+00
     10 -0.129480D+00 -0.258960D+00  0.175284D+00 -0.238387D+00  0.197637D+00
     11 -0.129480D+00 -0.258960D+00 -0.238387D+00  0.175284D+00  0.197637D+00
     12  0.000000D+00  0.000000D+00  0.118010D+00 -0.590048D-01 -0.590048D-01
     13  0.000000D+00  0.000000D+00  0.000000D+00  0.497857D-01 -0.497857D-01
     14 -0.171118D+00 -0.342236D+00  0.990970D-01  0.990970D-01 -0.203972D-01
                6             7             8             9            10 
      6  0.181835D+01
      7 -0.812510D+00  0.181835D+01
      8 -0.799586D+00 -0.799586D+00  0.184420D+01
      9  0.254557D-01  0.254557D-01  0.113682D+00  0.477881D+00
     10 -0.176640D+00 -0.610178D-01 -0.182888D+00 -0.323611D+00  0.989306D+00
     11 -0.610178D-01 -0.176640D+00 -0.182888D+00 -0.323611D+00 -0.233018D+00
     12  0.106041D+01 -0.523307D+00 -0.523307D+00  0.313978D-01  0.389240D-01
     13  0.388080D-02  0.449305D+00 -0.441543D+00  0.264921D-01 -0.365944D-01
     14 -0.103389D+00 -0.103389D+00 -0.699896D-01  0.207223D+00  0.387641D-01
               11            12            13            14 
     11  0.989306D+00
     12 -0.845181D-01  0.172625D+01
     13 -0.187601D-02  0.000000D+00  0.409654D+00
     14  0.387641D-01  0.118859D-01  0.100288D-01  0.291577D+00
 Internal  Forces:  Max     0.000209987 RMS     0.000064835
 Search for a local minimum.
 Step number   1 out of a maximum of    2
 All quantities printed in internal units (Hartrees-Bohrs-Radians)
 Second derivative matrix not updated -- analytic derivatives used.
 The second derivative matrix:
                          R1        R2        R3        R4        R5
           R1           1.27301
           R2           0.00640   0.34325
           R3          -0.00262   0.00754   0.34332
           R4          -0.00262   0.00754   0.00242   0.34332
           R5          -0.00262   0.00754   0.00242   0.00242   0.34332
           A1           0.00040   0.01038   0.00976  -0.00600  -0.00794
           A2           0.00040   0.01039  -0.00600   0.00975  -0.00794
           A3           0.00040   0.01039  -0.00600  -0.00600   0.00781
           A4          -0.00009  -0.00242   0.00475   0.00475  -0.00852
           A5          -0.00057  -0.01482   0.00747  -0.00991   0.00841
           A6          -0.00057  -0.01482  -0.00991   0.00747   0.00841
           A7          -0.00000   0.00000  -0.00156   0.00078   0.00078
           A8          -0.00000   0.00000   0.00000  -0.00066   0.00066
           D1          -0.00076  -0.01958   0.00431   0.00431  -0.00072
                          A1        A2        A3        A4        A5
           A1           0.11008
           A2          -0.04255   0.11008
           A3          -0.04231  -0.04231   0.11057
           A4           0.00503   0.00503   0.00669   0.05031
           A5          -0.01658  -0.01440  -0.01670  -0.03377   0.10569
           A6          -0.01439  -0.01658  -0.01669  -0.03377  -0.02288
           A7          -0.01784   0.00915   0.00915   0.00104   0.00129
           A8           0.00013  -0.00746   0.00772   0.00088  -0.00121
           D1          -0.01143  -0.01143  -0.01080   0.02215   0.00624
                          A6        A7        A8        D1
           A6           0.10569
           A7          -0.00279   0.09117
           A8          -0.00006   0.00000   0.02164
           D1           0.00624   0.00039   0.00033   0.03352
 ITU=  0
 IAlgDg is returning  0.
 DiagDN:  BShift=  1.00D+00
 Eigenvectors of the second derivative matrix:
                           1         2         3         4         5
     Eigenvalues --     0.02075   0.05885   0.08394   0.12668   0.12676
   1         R1         0.00000   0.00025   0.00001   0.00000   0.00005
   2         R2         0.00020   0.09341   0.00343  -0.00004   0.09792
   3         R3        -0.00005  -0.02301  -0.00745  -0.06403   0.01644
   4         R4         0.00021  -0.02311   0.00243   0.06387   0.01639
   5         R5        -0.00025   0.00225   0.00338   0.00017  -0.08078
   6         A1        -0.00056  -0.23508   0.24140   0.10220  -0.23965
   7         A2        -0.05776  -0.22967  -0.13221  -0.09990  -0.23665
   8         A3         0.05662  -0.24476  -0.13290  -0.00203  -0.08724
   9         A4         0.01066   0.50932  -0.00451   0.00024  -0.51395
  10         A5        -0.00917   0.11080  -0.01793   0.69664   0.54768
  11         A6         0.00026   0.10987   0.04683  -0.69716   0.54606
  12         A7        -0.00002  -0.01623   0.95071   0.00668  -0.00325
  13         A8        -0.99659   0.00970   0.00017  -0.00095  -0.00145
  14         D1         0.00773   0.73361   0.01088  -0.00001   0.00109
                           6         7         8         9        10
     Eigenvalues --     0.15266   0.15901   0.33611   0.34348   0.34361
   1         R1        -0.00000   0.00000  -0.00832  -0.00098  -0.00012
   2         R2         0.01084  -0.00609   0.70458   0.06111   0.00745
   3         R3        -0.00328   0.05952  -0.44698   0.25137   0.74002
   4         R4        -0.05165  -0.02779  -0.44756   0.42806  -0.65366
   5         R5         0.04950  -0.02865  -0.29864  -0.85846  -0.10860
   6         A1        -0.01122  -0.75614   0.03163   0.03827   0.06371
   7         A2         0.67489   0.39796   0.03175   0.05213  -0.05185
   8         A3        -0.71844   0.38783   0.04524  -0.05336  -0.00724
   9         A4        -0.06331   0.03572  -0.00169   0.04601   0.00577
  10         A5         0.11018   0.05393  -0.05500  -0.04917   0.05036
  11         A6         0.00949  -0.12016  -0.05506  -0.03495  -0.06088
  12         A7        -0.00241   0.30925   0.00127  -0.00530  -0.01261
  13         A8        -0.08170  -0.00072   0.00083  -0.00478   0.00201
  14         D1        -0.00835   0.00544  -0.06400   0.00767   0.00098
                          11        12
     Eigenvalues --     0.36006   1.27308
   1         R1        -0.00140   0.99996
   2         R2         0.69373   0.00687
   3         R3         0.42529  -0.00278
   4         R4         0.42525  -0.00278
   5         R5         0.39019  -0.00279
   6         A1         0.02165   0.00041
   7         A2         0.02165   0.00041
   8         A3         0.01937   0.00041
   9         A4         0.00289  -0.00007
  10         A5        -0.03369  -0.00060
  11         A6        -0.03369  -0.00060
  12         A7         0.00001  -0.00000
  13         A8         0.00001   0.00000
  14         D1        -0.03449  -0.00075
 Forces in eigenvector basis: 
                 1 
      1   0.000000D+00
      2  -0.962216D-05
      3  -0.224540D-04
      4  -0.363440D-05
      5  -0.631275D-05
      6   0.000000D+00
      7   0.121740D-05
      8   0.306208D-04
      9   0.764518D-05
     10   0.140007D-05
     11  -0.114660D-03
     12  -0.209890D-03
 Angle between quadratic step and forces=  46.20 degrees.
 Linear search not attempted -- first point.
 IB Matrix in FormBX:
              1            2            3            4            5
     1            1            2            3            3            3
     2            2            3            4            5            6
     3            0            0            0            0            0
     4            0            0            0            0            0
              6            7            8            9           10
     1            2            2            2            4            4
     2            3            3            3            3            3
     3            4            5            6            5            6
     4            0            0            0            0            0
             11           12           13           14
     1            5            1            1            4
     2            3            2            2            3
     3            6            3            3            6
     4            0            4            4            5
 B Matrix in FormBX:
                 1             2             3             4             5 
      1   0.000000D+00  0.000000D+00  0.000000D+00 -0.812425D+00  0.812425D+00
      2   0.000000D+00  0.000000D+00 -0.938108D+00  0.469054D+00  0.469054D+00
      3   0.100000D+01  0.100000D+01  0.346344D+00  0.346344D+00  0.346344D+00
      4   0.000000D+00  0.000000D+00  0.000000D+00  0.812425D+00 -0.812425D+00
      5   0.000000D+00  0.000000D+00  0.938108D+00 -0.469054D+00 -0.469054D+00
      6  -0.100000D+01 -0.100000D+01 -0.346344D+00 -0.346344D+00 -0.346344D+00
      7   0.000000D+00  0.000000D+00  0.000000D+00  0.000000D+00  0.000000D+00
      8   0.000000D+00  0.000000D+00  0.000000D+00  0.000000D+00  0.000000D+00
      9   0.000000D+00  0.000000D+00  0.000000D+00  0.000000D+00  0.000000D+00
     10   0.000000D+00  0.000000D+00  0.000000D+00  0.000000D+00  0.000000D+00
     11   0.000000D+00  0.000000D+00  0.000000D+00  0.000000D+00  0.000000D+00
     12   0.000000D+00  0.000000D+00  0.000000D+00  0.000000D+00  0.000000D+00
                 6             7             8             9            10 
      1   0.000000D+00 -0.313803D+00  0.313803D+00 -0.414958D+00  0.414958D+00
      2  -0.362349D+00  0.181174D+00  0.181174D+00  0.862145D-01  0.862145D-01
      3   0.000000D+00  0.000000D+00  0.000000D+00  0.233521D+00  0.233521D+00
      4   0.000000D+00  0.458944D+00 -0.458944D+00  0.547773D+00 -0.547773D+00
      5   0.529943D+00 -0.264972D+00 -0.264972D+00  0.316257D+00  0.316257D+00
      6   0.453946D+00  0.453946D+00  0.453946D+00 -0.467041D+00 -0.467041D+00
      7   0.000000D+00 -0.145141D+00  0.145141D+00 -0.132815D+00  0.132815D+00
      8  -0.167594D+00  0.837972D-01  0.837972D-01 -0.402471D+00 -0.402471D+00
      9  -0.453946D+00 -0.453946D+00 -0.453946D+00  0.233521D+00  0.233521D+00
     10   0.000000D+00  0.000000D+00  0.000000D+00  0.000000D+00  0.000000D+00
     11   0.000000D+00  0.000000D+00  0.000000D+00  0.000000D+00  0.000000D+00
     12   0.000000D+00  0.000000D+00  0.000000D+00  0.000000D+00  0.000000D+00
                11            12            13            14 
      1   0.282143D+00  0.000000D+00 -0.936169D+00 -0.262749D+00
      2   0.316257D+00 -0.456048D+00  0.000000D+00  0.151698D+00
      3   0.233521D+00  0.000000D+00  0.000000D+00  0.410890D+00
      4   0.000000D+00  0.000000D+00  0.167999D+01  0.346847D+00
      5  -0.632514D+00  0.818397D+00  0.000000D+00  0.200252D+00
      6  -0.467041D+00  0.000000D+00  0.000000D+00 -0.108481D+01
      7  -0.282143D+00  0.000000D+00 -0.743824D+00 -0.840979D-01
      8   0.316257D+00 -0.362349D+00  0.000000D+00 -0.485539D-01
      9   0.233521D+00  0.000000D+00  0.000000D+00  0.263026D+00
     10   0.000000D+00  0.000000D+00  0.000000D+00  0.000000D+00
     11   0.000000D+00  0.000000D+00  0.000000D+00 -0.303397D+00
     12   0.000000D+00  0.000000D+00  0.000000D+00  0.410890D+00
 Iteration  1 RMS(Cart)=  0.00016493 RMS(Int)=  0.00000002
 Iteration  2 RMS(Cart)=  0.00000002 RMS(Int)=  0.00000000
 Input Coordinates in SymCor: 
                 1             2             3             4             5 
      1   0.000000D+00  0.000000D+00  0.000000D+00  0.000000D+00  0.167877D+01
      2   0.249476D-03 -0.202657D-03 -0.835706D-04  0.193847D+01 -0.969218D+00
      3   0.272142D+01  0.528832D+00 -0.223076D+01 -0.294631D+01 -0.294665D+01
                 6 
      1  -0.167877D+01
      2  -0.969218D+00
      3  -0.294665D+01
 Symmetrized Coordinates in SymCor: 
                 1             2             3             4             5 
      1   0.000000D+00  0.000000D+00  0.000000D+00 -0.193847D+01  0.969236D+00
      2   0.000000D+00  0.000000D+00  0.000000D+00  0.000000D+00  0.167877D+01
      3   0.272142D+01  0.528832D+00 -0.223076D+01 -0.294631D+01 -0.294631D+01
                 6 
      1   0.969236D+00
      2  -0.167877D+01
      3  -0.294631D+01
 Final Coordinates in SymCor: 
                 1             2             3             4             5 
      1   0.000000D+00  0.000000D+00  0.000000D+00  0.000000D+00  0.167877D+01
      2   0.000000D+00  0.000000D+00  0.000000D+00  0.193847D+01 -0.969236D+00
      3   0.272142D+01  0.528832D+00 -0.223076D+01 -0.294631D+01 -0.294631D+01
                 6 
      1  -0.167877D+01
      2  -0.969236D+00
      3  -0.294631D+01
 ClnCor:  largest displacement from symmetrization is 3.35D-04 for atom     5.
 Variable       Old X    -DE/DX   Delta X   Delta X   Delta X     New X
                                 (Linear)    (Quad)   (Total)
    R1        2.19275  -0.00021   0.00000  -0.00017  -0.00017   2.19258
    R2        2.75977  -0.00006   0.00000  -0.00018  -0.00018   2.75959
    R3        2.06656  -0.00006   0.00000  -0.00016  -0.00024   2.06632
    R4        2.06656  -0.00006   0.00000  -0.00017  -0.00024   2.06632
    R5        2.06656  -0.00006   0.00000  -0.00017  -0.00024   2.06632
    A1        1.92447  -0.00000   0.00000  -0.00003  -0.00005   1.92441
    A2        1.92447   0.00001   0.00000   0.00008  -0.00005   1.92441
    A3        1.92447   0.00001   0.00000   0.00008  -0.00005   1.92441
    A4        1.89660  -0.00000   0.00000  -0.00006   0.00006   1.89665
    A5        1.89660  -0.00000   0.00000  -0.00006   0.00006   1.89665
    A6        1.89660  -0.00000   0.00000  -0.00003   0.00006   1.89665
    A7        3.14159  -0.00002   0.00000  -0.00025   0.00000   3.14159
    A8        3.14159  -0.00000   0.00000   0.00000   0.00000   3.14159
    D1        2.06092  -0.00001   0.00000  -0.00012   0.00013   2.06105
         Item               Value     Threshold  Converged?
 Maximum Force            0.000210     0.000450     YES
 RMS     Force            0.000065     0.000300     YES
 Maximum Displacement     0.000293     0.001800     YES
 RMS     Displacement     0.000176     0.001200     YES
 Predicted change in Energy=-3.121141D-08
 Optimization completed.
    -- Stationary point found.
                           ----------------------------
                           !   Optimized Parameters   !
                           ! (Angstroms and Degrees)  !
 --------------------------                            --------------------------
 ! Name  Definition              Value          Derivative Info.                !
 --------------------------------------------------------------------------------
 ! R1    R(1,2)                  1.1604         -DE/DX =   -0.0002              !
 ! R2    R(2,3)                  1.4604         -DE/DX =   -0.0001              !
 ! R3    R(3,4)                  1.0936         -DE/DX =   -0.0001              !
 ! R4    R(3,5)                  1.0936         -DE/DX =   -0.0001              !
 ! R5    R(3,6)                  1.0936         -DE/DX =   -0.0001              !
 ! A1    A(2,3,4)              110.2639         -DE/DX =    0.0                 !
 ! A2    A(2,3,5)              110.2639         -DE/DX =    0.0                 !
 ! A3    A(2,3,6)              110.2639         -DE/DX =    0.0                 !
 ! A4    A(4,3,5)              108.6671         -DE/DX =    0.0                 !
 ! A5    A(4,3,6)              108.6671         -DE/DX =    0.0                 !
 ! A6    A(5,3,6)              108.6671         -DE/DX =    0.0                 !
 ! A7    L(1,2,3,4,-1)         180.0            -DE/DX =    0.0                 !
 ! A8    L(1,2,3,4,-2)         180.0            -DE/DX =    0.0                 !
 ! D1    D(4,3,6,5)            118.0821         -DE/DX =    0.0                 !
 --------------------------------------------------------------------------------
 GradGradGradGradGradGradGradGradGradGradGradGradGradGradGradGradGradGrad

 Leave Link  103 at Sat Aug 10 16:32:50 2019, MaxMem=  4294967296 cpu:               0.3 elap:               0.1

 ----------------------------------------------------------------------

 Electric dipole moment (input orientation):
 (Debye = 10**-18 statcoulomb cm , SI units = C m)
                  (au)            (Debye)         (10**-30 SI)
   Tot        0.150599D+01      0.382786D+01      0.127684D+02
   x          0.000000D+00      0.000000D+00      0.000000D+00
   y          0.000000D+00      0.000000D+00      0.000000D+00
   z         -0.150599D+01     -0.382786D+01     -0.127684D+02

 Dipole polarizability, Alpha (input orientation).
 (esu units = cm**3 , SI units = C**2 m**2 J**-1)
 Alpha(0;0):
               (au)            (10**-24 esu)      (10**-40 SI)
   iso        0.232043D+02      0.343852D+01      0.382587D+01
   aniso      0.167483D+02      0.248184D+01      0.276141D+01
   xx         0.176215D+02      0.261124D+01      0.290539D+01
   yx         0.000000D+00      0.000000D+00      0.000000D+00
   yy         0.176215D+02      0.261124D+01      0.290539D+01
   zx         0.000000D+00      0.000000D+00      0.000000D+00
   zy         0.000000D+00      0.000000D+00      0.000000D+00
   zz         0.343698D+02      0.509307D+01      0.566681D+01

 ----------------------------------------------------------------------

 Dipole orientation:
     7          0.00000000         -0.00000047         -2.72165537
     6          0.00000000         -0.00000016         -0.52890600
     6         -0.00000000          0.00000023          2.23086515
     1         -0.00000000         -1.93865639          2.94660676
     1          1.67892597          0.96932869          2.94660634
     1         -1.67892597          0.96932869          2.94660634

 Electric dipole moment (dipole orientation):
 (Debye = 10**-18 statcoulomb cm , SI units = C m)
                  (au)            (Debye)         (10**-30 SI)
   Tot        0.150599D+01      0.382786D+01      0.127684D+02
   x          0.000000D+00      0.000000D+00      0.000000D+00
   y          0.000000D+00      0.000000D+00      0.000000D+00
   z          0.150599D+01      0.382786D+01      0.127684D+02

 Dipole polarizability, Alpha (dipole orientation).
 (esu units = cm**3 , SI units = C**2 m**2 J**-1)
 Alpha(0;0):
               (au)            (10**-24 esu)      (10**-40 SI)
   iso        0.232043D+02      0.343852D+01      0.382587D+01
   aniso      0.167483D+02      0.248184D+01      0.276141D+01
   xx         0.176215D+02      0.261124D+01      0.290539D+01
   yx         0.000000D+00      0.000000D+00      0.000000D+00
   yy         0.176215D+02      0.261124D+01      0.290539D+01
   zx         0.000000D+00      0.000000D+00      0.000000D+00
   zy         0.000000D+00      0.000000D+00      0.000000D+00
   zz         0.343698D+02      0.509307D+01      0.566681D+01

 ----------------------------------------------------------------------

 Test job not archived.
 1\1\NSC-N1360\Freq\RB3LYP\6-31G(d,p)\C2H3N1\X_KJEJO\10-Aug-2019\0\\# f
 req(intmodes) iop(1/33=3) b3lyp/6-31g(d,p) geom=connectivity iop(7/75=
 -1)\\name\\0,1\N,0.,0.0000000455,1.440238\C,0.,0.0000000455,0.279885\C
 ,0.,0.0000000455,-1.180523\H,0.,1.025893,-1.559277\H,0.8884493602,-0.5
 129464318,-1.559277\H,-0.8884493602,-0.5129464318,-1.559277\\Version=E
 S64L-G16RevB.01\State=1-A\HF=-132.7591466\RMSD=2.582e-09\RMSF=6.560e-0
 5\ZeroPoint=0.0454329\Thermal=0.0490326\Dipole=0.,0.0000002,-1.505995\
 DipoleDeriv=-0.3174217,0.0000016,0.,-0.0000016,-0.3174225,-0.0000023,0
 .,-0.0000039,-0.2837906,0.0741255,-0.0000012,0.,0.0000012,0.0741271,0.
 000002,0.,0.000002,0.1962369,0.1119629,-0.0000005,0.,0.0000005,0.11195
 98,0.0000009,0.,0.0000023,0.0271229,0.108145,-0.0000001,0.0000001,-0.0
 000002,-0.0205884,0.0402592,-0.0000002,0.0153094,0.0201436,0.0115947,0
 .0557435,0.0348665,0.0557433,0.0759617,-0.0201298,0.0132588,-0.0076546
 ,0.0201436,0.0115944,-0.0557433,-0.0348666,-0.0557432,0.0759619,-0.020
 1296,-0.0132586,-0.007655,0.0201436\Polar=17.6215094,0.,17.6214972,0.,
 0.0000007,34.3697621\Quadrupole=0.765413,0.7654132,-1.5308262,0.,0.,0.
 0000003\PG=C03 [C3(C1C1N1),X(H3)]\NImag=0\\0.01905691,0.,0.01905713,0.
 ,0.00000575,1.27301430,-0.03858067,-0.00000002,0.,0.10724158,0.0000000
 2,-0.03858088,-0.00000569,0.,0.10724212,0.,-0.00000475,-1.26661221,0.,
 0.00000595,1.60345776,0.01940991,-0.00000001,0.,-0.07357889,0.,0.,0.55
 376881,0.00000001,0.01940993,-0.00000030,0.,-0.07357882,-0.00000162,0.
 ,0.55376837,0.,-0.00000097,-0.00717975,0.,-0.00000062,-0.27787676,0.,0
 .00000212,0.51254458,0.00089097,-0.00000004,-0.00000001,-0.00216605,0.
 00000012,0.00000002,-0.04521612,-0.00000039,0.00000155,0.04430504,-0.0
 0000006,-0.00081502,-0.00269760,0.00000013,0.00544460,0.00357124,-0.00
 000039,-0.28785075,0.08529328,0.00000030,0.30845156,0.00000001,-0.0042
 6047,0.00025902,0.,0.03491348,-0.01965609,0.00000147,0.08619683,-0.075
 82936,-0.00000155,-0.09464591,0.08640161,-0.00038852,0.00073875,-0.002
 33639,0.00354187,-0.00329574,0.00309252,-0.22719158,0.10506411,0.07386
 585,0.00109306,-0.00118790,-0.00151435,0.24241454,0.00073871,0.0004643
 7,0.00134893,-0.00329572,-0.00026342,-0.00178547,0.10506417,-0.1058747
 6,-0.04264824,0.02493133,-0.01261518,-0.01110199,-0.11437888,0.1103418
 7,-0.00368973,0.00213020,0.00025932,0.03023570,-0.01745656,-0.01965641
 ,0.07464824,-0.04309983,-0.07582933,-0.01037178,0.00423946,0.00441240,
 -0.08196503,0.04732431,0.08640169,-0.00038860,-0.00073868,0.00233640,0
 .00354209,0.00329560,-0.00309254,-0.22719225,-0.10506373,-0.07386740,0
 .00109308,0.00118791,0.00151441,-0.01946929,-0.01305963,-0.00885743,0.
 24241507,-0.00073869,0.00046446,0.00134890,0.00329562,-0.00026363,-0.0
 0178543,-0.10506377,-0.10587409,-0.04264555,-0.02493132,-0.01261520,-0
 .01110196,0.01305961,0.00794718,0.00686246,0.11437857,0.11034134,0.003
 68972,0.00213022,0.00025932,-0.03023571,-0.01745654,-0.01965641,-0.074
 64971,-0.04309729,-0.07582933,0.01037178,0.00423953,0.00441240,0.00885
 737,0.00686250,0.00441239,0.08196658,0.04732162,0.08640169\\0.,-0.0000
 1352,0.00020999,0.,0.00001167,-0.00014944,0.,0.00000204,-0.00001122,0.
 00000002,0.00005695,-0.00001662,0.00004945,-0.00002859,-0.00001635,-0.
 00004947,-0.00002856,-0.00001635\\\@


 IT'S WHAT A FELLER THINKS HE KNOWS THAT HURTS HIM...
                    ------
           KIN HUBBARD
 Job cpu time:       0 days  0 hours  1 minutes  4.8 seconds.
 Elapsed time:       0 days  0 hours  0 minutes  5.2 seconds.
 File lengths (MBytes):  RWF=      6 Int=      0 D2E=      0 Chk=      8 Scr=      1
 Normal termination of Gaussian 16 at Sat Aug 10 16:32:51 2019.
