 Entering Gaussian System, Link 0=/software/sse/easybuild/prefix/software/Gaussian/16.B.01-avx2-nsc1-bdist/g16/g16.orig
 Input=freq-lm.wrap
 Output=freq-lm.log
 Initial command:
 /software/sse/easybuild/prefix/software/Gaussian/16.B.01-avx2-nsc1-bdist/g16/l1.exe "/scratch/local/Gau-79310.inp" -scrdir="/scratch/local/"
 Default is to use a total of  16 processors:
                               16 via shared-memory
                                1 via Linda
 Entering Link 1 = /software/sse/easybuild/prefix/software/Gaussian/16.B.01-avx2-nsc1-bdist/g16/l1.exe PID=     79320.
  
 Copyright (c) 1988-2017, Gaussian, Inc.  All Rights Reserved.
  
 This is part of the Gaussian(R) 16 program.  It is based on
 the Gaussian(R) 09 system (copyright 2009, Gaussian, Inc.),
 the Gaussian(R) 03 system (copyright 2003, Gaussian, Inc.),
 the Gaussian(R) 98 system (copyright 1998, Gaussian, Inc.),
 the Gaussian(R) 94 system (copyright 1995, Gaussian, Inc.),
 the Gaussian 92(TM) system (copyright 1992, Gaussian, Inc.),
 the Gaussian 90(TM) system (copyright 1990, Gaussian, Inc.),
 the Gaussian 88(TM) system (copyright 1988, Gaussian, Inc.),
 the Gaussian 86(TM) system (copyright 1986, Carnegie Mellon
 University), and the Gaussian 82(TM) system (copyright 1983,
 Carnegie Mellon University). Gaussian is a federally registered
 trademark of Gaussian, Inc.
  
 This software contains proprietary and confidential information,
 including trade secrets, belonging to Gaussian, Inc.
  
 This software is provided under written license and may be
 used, copied, transmitted, or stored only in accord with that
 written license.
  
 The following legend is applicable only to US Government
 contracts under FAR:
  
                    RESTRICTED RIGHTS LEGEND
  
 Use, reproduction and disclosure by the US Government is
 subject to restrictions as set forth in subparagraphs (a)
 and (c) of the Commercial Computer Software - Restricted
 Rights clause in FAR 52.227-19.
  
 Gaussian, Inc.
 340 Quinnipiac St., Bldg. 40, Wallingford CT 06492
  
  
 ---------------------------------------------------------------
 Warning -- This program may not be used in any manner that
 competes with the business of Gaussian, Inc. or will provide
 assistance to any competitor of Gaussian, Inc.  The licensee
 of this program is prohibited from giving any competitor of
 Gaussian, Inc. access to this program.  By using this program,
 the user acknowledges that Gaussian, Inc. is engaged in the
 business of creating and licensing software in the field of
 computational chemistry and represents and warrants to the
 licensee that it is not a competitor of Gaussian, Inc. and that
 it will not use this program in any manner prohibited above.
 ---------------------------------------------------------------
  

 Cite this work as:
 Gaussian 16, Revision B.01,
 M. J. Frisch, G. W. Trucks, H. B. Schlegel, G. E. Scuseria, 
 M. A. Robb, J. R. Cheeseman, G. Scalmani, V. Barone, 
 G. A. Petersson, H. Nakatsuji, X. Li, M. Caricato, A. V. Marenich, 
 J. Bloino, B. G. Janesko, R. Gomperts, B. Mennucci, H. P. Hratchian, 
 J. V. Ortiz, A. F. Izmaylov, J. L. Sonnenberg, D. Williams-Young, 
 F. Ding, F. Lipparini, F. Egidi, J. Goings, B. Peng, A. Petrone, 
 T. Henderson, D. Ranasinghe, V. G. Zakrzewski, J. Gao, N. Rega, 
 G. Zheng, W. Liang, M. Hada, M. Ehara, K. Toyota, R. Fukuda, 
 J. Hasegawa, M. Ishida, T. Nakajima, Y. Honda, O. Kitao, H. Nakai, 
 T. Vreven, K. Throssell, J. A. Montgomery, Jr., J. E. Peralta, 
 F. Ogliaro, M. J. Bearpark, J. J. Heyd, E. N. Brothers, K. N. Kudin, 
 V. N. Staroverov, T. A. Keith, R. Kobayashi, J. Normand, 
 K. Raghavachari, A. P. Rendell, J. C. Burant, S. S. Iyengar, 
 J. Tomasi, M. Cossi, J. M. Millam, M. Klene, C. Adamo, R. Cammi, 
 J. W. Ochterski, R. L. Martin, K. Morokuma, O. Farkas, 
 J. B. Foresman, and D. J. Fox, Gaussian, Inc., Wallingford CT, 2016.
 
 ******************************************
 Gaussian 16:  ES64L-G16RevB.01 20-Dec-2017
                10-Aug-2019 
 ******************************************
 %chk=freq.chk
 ----------------------------------------------------------------------
 # freq(intmodes) iop(1/33=3) b3lyp/6-31g(d,p) geom=connectivity iop(7/
 75=-1)
 ----------------------------------------------------------------------
 1/10=4,18=20,30=1,33=3,38=1,57=2/1,3;
 2/9=110,12=2,17=6,18=5,40=1/2;
 3/5=1,6=6,7=101,11=2,25=1,30=1,71=2,74=-5,140=1/1,2,3;
 4//1;
 5/5=2,38=5,98=1/2;
 8/6=4,10=90,11=11/1;
 11/6=1,8=1,9=11,15=111,16=1/1,2,10;
 10/6=1/2;
 6/7=2,8=2,9=2,10=2,28=1/1;
 7/8=21,10=1,25=1,75=-1/1,2,3,16;
 1/10=4,18=20,30=1,33=3/3;
 99//99;
 ONIOM results not found on unit 2.
 ----
 name
 ----
 TstMul:  ICh=     0
 TstMul:  Mul=     1
 TstMul:  ICh=     0
 TstMul:  Mul=     1
 Symbolic Z-matrix:
 Charge =  0 Multiplicity = 1
 C                     0.        0.        0.76504 
 H                     0.        1.0198    1.16435 
 H                     0.88317  -0.5099    1.16435 
 H                    -0.88317  -0.5099    1.16435 
 C                     0.        0.       -0.76504 
 H                     0.       -1.0198   -1.16435 
 H                    -0.88317   0.5099   -1.16435 
 H                     0.88317   0.5099   -1.16435 
 
 RdStrC is calling ZToCFu for IStruc=1 NZ=     8.
                                ZToCFu                                
 ---------------------------------------------------------------------
 Center     Atomic      Atomic             Coordinates (Angstroms)
 Number     Number       Type             X           Y           Z
 ---------------------------------------------------------------------
      1          6           0        0.000000    0.000000    0.765044
      2          1           0        0.000000    1.019798    1.164349
      3          1           0        0.883171   -0.509899    1.164349
      4          1           0       -0.883171   -0.509899    1.164349
      5          6           0        0.000000    0.000000   -0.765044
      6          1           0        0.000000   -1.019798   -1.164349
      7          1           0       -0.883171    0.509899   -1.164349
      8          1           0        0.883171    0.509899   -1.164349
 ---------------------------------------------------------------------
 Connectivity in DoCon:
 I=     1 IAn=  6 IBond, RBType=     2  1.00     3  1.00     4  1.00     5  1.00
 I=     2 IAn=  1 IBond, RBType=     1  1.00
 I=     3 IAn=  1 IBond, RBType=     1  1.00
 I=     4 IAn=  1 IBond, RBType=     1  1.00
 I=     5 IAn=  6 IBond, RBType=     1  1.00     6  1.00     7  1.00     8  1.00
 I=     6 IAn=  1 IBond, RBType=     5  1.00
 I=     7 IAn=  1 IBond, RBType=     5  1.00
 I=     8 IAn=  1 IBond, RBType=     5  1.00
 After GenITR:
 ITRead=  0  0  0  0  0  0  0  0
 MicOpt= -1 -1 -1 -1 -1 -1 -1 -1
 List IsCon N=      8 M=      2:
 I=      1 Vals=      2      1 |      3      1 |      4      1 |      5      1 |
 I=      2 Vals=      1      1 |
 I=      3 Vals=      1      1 |
 I=      4 Vals=      1      1 |
 I=      5 Vals=      1      1 |      6      1 |      7      1 |      8      1 |
 I=      6 Vals=      5      1 |
 I=      7 Vals=      5      1 |
 I=      8 Vals=      5      1 |
 Coordinate R1 contains atom 1 which is already in QM block.
 Coordinate R1 contains atom 2 which is already in QM block.
 Coordinate R2 contains atom 1 which is already in QM block.
 Coordinate R2 contains atom 3 which is already in QM block.
 Coordinate R3 contains atom 1 which is already in QM block.
 Coordinate R3 contains atom 4 which is already in QM block.
 Coordinate R4 contains atom 1 which is already in QM block.
 Coordinate R4 contains atom 5 which is already in QM block.
 Coordinate R5 contains atom 5 which is already in QM block.
 Coordinate R5 contains atom 6 which is already in QM block.
 Coordinate R6 contains atom 5 which is already in QM block.
 Coordinate R6 contains atom 7 which is already in QM block.
 Coordinate R7 contains atom 5 which is already in QM block.
 Coordinate R7 contains atom 8 which is already in QM block.
 Coordinate A1 contains atom 2 which is already in QM block.
 Coordinate A1 contains atom 1 which is already in QM block.
 Coordinate A1 contains atom 1 which is already in QM block.
 Coordinate A2 contains atom 2 which is already in QM block.
 Coordinate A2 contains atom 1 which is already in QM block.
 Coordinate A2 contains atom 1 which is already in QM block.
 Coordinate A3 contains atom 2 which is already in QM block.
 Coordinate A3 contains atom 1 which is already in QM block.
 Coordinate A3 contains atom 1 which is already in QM block.
 Coordinate A4 contains atom 3 which is already in QM block.
 Coordinate A4 contains atom 1 which is already in QM block.
 Coordinate A4 contains atom 1 which is already in QM block.
 Coordinate A5 contains atom 3 which is already in QM block.
 Coordinate A5 contains atom 1 which is already in QM block.
 Coordinate A5 contains atom 1 which is already in QM block.
 Coordinate A6 contains atom 4 which is already in QM block.
 Coordinate A6 contains atom 1 which is already in QM block.
 Coordinate A6 contains atom 1 which is already in QM block.
 Coordinate A7 contains atom 1 which is already in QM block.
 Coordinate A7 contains atom 5 which is already in QM block.
 Coordinate A7 contains atom 5 which is already in QM block.
 Coordinate A8 contains atom 1 which is already in QM block.
 Coordinate A8 contains atom 5 which is already in QM block.
 Coordinate A8 contains atom 5 which is already in QM block.
 Coordinate A9 contains atom 1 which is already in QM block.
 Coordinate A9 contains atom 5 which is already in QM block.
 Coordinate A9 contains atom 5 which is already in QM block.
 Coordinate A10 contains atom 6 which is already in QM block.
 Coordinate A10 contains atom 5 which is already in QM block.
 Coordinate A10 contains atom 5 which is already in QM block.
 Coordinate A11 contains atom 6 which is already in QM block.
 Coordinate A11 contains atom 5 which is already in QM block.
 Coordinate A11 contains atom 5 which is already in QM block.
 Coordinate A12 contains atom 7 which is already in QM block.
 Coordinate A12 contains atom 5 which is already in QM block.
 Coordinate A12 contains atom 5 which is already in QM block.
 Coordinate D1 contains atom 2 which is already in QM block.
 Coordinate D1 contains atom 1 which is already in QM block.
 Coordinate D1 contains atom 5 which is already in QM block.
 Coordinate D1 contains atom 6 which is already in QM block.
 Coordinate D2 contains atom 2 which is already in QM block.
 Coordinate D2 contains atom 1 which is already in QM block.
 Coordinate D2 contains atom 5 which is already in QM block.
 Coordinate D2 contains atom 7 which is already in QM block.
 Coordinate D3 contains atom 2 which is already in QM block.
 Coordinate D3 contains atom 1 which is already in QM block.
 Coordinate D3 contains atom 5 which is already in QM block.
 Coordinate D3 contains atom 8 which is already in QM block.
 Coordinate D4 contains atom 3 which is already in QM block.
 Coordinate D4 contains atom 1 which is already in QM block.
 Coordinate D4 contains atom 5 which is already in QM block.
 Coordinate D4 contains atom 6 which is already in QM block.
 Coordinate D5 contains atom 3 which is already in QM block.
 Coordinate D5 contains atom 1 which is already in QM block.
 Coordinate D5 contains atom 5 which is already in QM block.
 Coordinate D5 contains atom 7 which is already in QM block.
 Coordinate D6 contains atom 3 which is already in QM block.
 Coordinate D6 contains atom 1 which is already in QM block.
 Coordinate D6 contains atom 5 which is already in QM block.
 Coordinate D6 contains atom 8 which is already in QM block.
 Coordinate D7 contains atom 4 which is already in QM block.
 Coordinate D7 contains atom 1 which is already in QM block.
 Coordinate D7 contains atom 5 which is already in QM block.
 Coordinate D7 contains atom 6 which is already in QM block.
 Coordinate D8 contains atom 4 which is already in QM block.
 Coordinate D8 contains atom 1 which is already in QM block.
 Coordinate D8 contains atom 5 which is already in QM block.
 Coordinate D8 contains atom 7 which is already in QM block.
 Coordinate D9 contains atom 4 which is already in QM block.
 Coordinate D9 contains atom 1 which is already in QM block.
 Coordinate D9 contains atom 5 which is already in QM block.
 Coordinate D9 contains atom 8 which is already in QM block.
 Saved connectivity
 I=     1 IAn=  6 IBond, RBType=     2  1.00     3  1.00     4  1.00     5  1.00
 I=     2 IAn=  1 IBond, RBType=     1  1.00
 I=     3 IAn=  1 IBond, RBType=     1  1.00
 I=     4 IAn=  1 IBond, RBType=     1  1.00
 I=     5 IAn=  6 IBond, RBType=     1  1.00     6  1.00     7  1.00     8  1.00
 I=     6 IAn=  1 IBond, RBType=     5  1.00
 I=     7 IAn=  1 IBond, RBType=     5  1.00
 I=     8 IAn=  1 IBond, RBType=     5  1.00
 ITRead=  0  0  0  0  0  0  0  0
 MicOpt= -1 -1 -1 -1 -1 -1 -1 -1
 NAtoms=      8 NQM=        8 NQMF=       0 NMMI=      0 NMMIF=      0
                NMic=       0 NMicF=      0.
 No MM parameters found.
 Leave Link  101 at Sat Aug 10 16:32:47 2019, MaxMem=  4294967296 cpu:               5.5 elap:               0.4

 GradGradGradGradGradGradGradGradGradGradGradGradGradGradGradGradGradGrad
 Berny optimization.
 GetPCM: File not found, return IValue=0.
 Optmz: redundant internal coordinate code flag= 1
 Initialization pass.
                           ----------------------------
                           !    Initial Parameters    !
                           ! (Angstroms and Degrees)  !
 --------------------------                            --------------------------
 ! Name  Definition              Value          Derivative Info.                !
 --------------------------------------------------------------------------------
 ! R1    R(1,2)                  1.0952         calculate D2E/DX2 analytically  !
 ! R2    R(1,3)                  1.0952         calculate D2E/DX2 analytically  !
 ! R3    R(1,4)                  1.0952         calculate D2E/DX2 analytically  !
 ! R4    R(1,5)                  1.5301         calculate D2E/DX2 analytically  !
 ! R5    R(5,6)                  1.0952         calculate D2E/DX2 analytically  !
 ! R6    R(5,7)                  1.0952         calculate D2E/DX2 analytically  !
 ! R7    R(5,8)                  1.0952         calculate D2E/DX2 analytically  !
 ! A1    A(2,1,3)              107.4936         calculate D2E/DX2 analytically  !
 ! A2    A(2,1,4)              107.4936         calculate D2E/DX2 analytically  !
 ! A3    A(2,1,5)              111.383          calculate D2E/DX2 analytically  !
 ! A4    A(3,1,4)              107.4937         calculate D2E/DX2 analytically  !
 ! A5    A(3,1,5)              111.383          calculate D2E/DX2 analytically  !
 ! A6    A(4,1,5)              111.383          calculate D2E/DX2 analytically  !
 ! A7    A(1,5,6)              111.383          calculate D2E/DX2 analytically  !
 ! A8    A(1,5,7)              111.383          calculate D2E/DX2 analytically  !
 ! A9    A(1,5,8)              111.383          calculate D2E/DX2 analytically  !
 ! A10   A(6,5,7)              107.4936         calculate D2E/DX2 analytically  !
 ! A11   A(6,5,8)              107.4936         calculate D2E/DX2 analytically  !
 ! A12   A(7,5,8)              107.4937         calculate D2E/DX2 analytically  !
 ! D1    D(2,1,5,6)            180.0            calculate D2E/DX2 analytically  !
 ! D2    D(2,1,5,7)            -60.0            calculate D2E/DX2 analytically  !
 ! D3    D(2,1,5,8)             60.0            calculate D2E/DX2 analytically  !
 ! D4    D(3,1,5,6)             60.0            calculate D2E/DX2 analytically  !
 ! D5    D(3,1,5,7)            180.0            calculate D2E/DX2 analytically  !
 ! D6    D(3,1,5,8)            -60.0            calculate D2E/DX2 analytically  !
 ! D7    D(4,1,5,6)            -60.0            calculate D2E/DX2 analytically  !
 ! D8    D(4,1,5,7)             60.0            calculate D2E/DX2 analytically  !
 ! D9    D(4,1,5,8)            180.0            calculate D2E/DX2 analytically  !
 --------------------------------------------------------------------------------
 Maximum allowed force set to 1.00D+20.
 Trust Radius=3.00D-01 FncErr=1.00D-07 GrdErr=1.00D-07 EigMax=2.50D+02 EigMin=1.00D-04
 Number of steps in this run=      2 maximum allowed number of steps=      2.
 GradGradGradGradGradGradGradGradGradGradGradGradGradGradGradGradGradGrad

 Leave Link  103 at Sat Aug 10 16:32:47 2019, MaxMem=  4294967296 cpu:               0.1 elap:               0.0
                          Input orientation:                          
 ---------------------------------------------------------------------
 Center     Atomic      Atomic             Coordinates (Angstroms)
 Number     Number       Type             X           Y           Z
 ---------------------------------------------------------------------
      1          6           0        0.000000    0.000000    0.765044
      2          1           0        0.000000    1.019798    1.164349
      3          1           0        0.883171   -0.509899    1.164349
      4          1           0       -0.883171   -0.509899    1.164349
      5          6           0        0.000000    0.000000   -0.765044
      6          1           0        0.000000   -1.019798   -1.164349
      7          1           0       -0.883171    0.509899   -1.164349
      8          1           0        0.883171    0.509899   -1.164349
 ---------------------------------------------------------------------
                    Distance matrix (angstroms):
                    1          2          3          4          5
     1  C    0.000000
     2  H    1.095186   0.000000
     3  H    1.095186   1.766342   0.000000
     4  H    1.095186   1.766342   1.766342   0.000000
     5  C    1.530088   2.182326   2.182326   2.182326   0.000000
     6  H    2.182326   3.095608   2.542208   2.542208   1.095186
     7  H    2.182326   2.542208   3.095608   2.542208   1.095186
     8  H    2.182326   2.542208   2.542208   3.095608   1.095186
                    6          7          8
     6  H    0.000000
     7  H    1.766342   0.000000
     8  H    1.766342   1.766342   0.000000
 Stoichiometry    C2H6
 Framework group  D3D[C3(C.C),3SGD(H2)]
 Deg. of freedom     3
 Full point group                 D3D     NOp  12
 Largest Abelian subgroup         C2H     NOp   4
 Largest concise Abelian subgroup C2H     NOp   4
                         Standard orientation:                         
 ---------------------------------------------------------------------
 Center     Atomic      Atomic             Coordinates (Angstroms)
 Number     Number       Type             X           Y           Z
 ---------------------------------------------------------------------
      1          6           0        0.000000    0.000000    0.765044
      2          1           0        0.000000    1.019798    1.164349
      3          1           0        0.883171   -0.509899    1.164349
      4          1           0       -0.883171   -0.509899    1.164349
      5          6           0       -0.000000   -0.000000   -0.765044
      6          1           0       -0.000000   -1.019798   -1.164349
      7          1           0       -0.883171    0.509899   -1.164349
      8          1           0        0.883171    0.509899   -1.164349
 ---------------------------------------------------------------------
 Rotational constants (GHZ):          80.3623252          19.9051999          19.9051999
 Standard basis: 6-31G(d,p) (6D, 7F)
 There are    20 symmetry adapted cartesian basis functions of AG  symmetry.
 There are    10 symmetry adapted cartesian basis functions of BG  symmetry.
 There are    10 symmetry adapted cartesian basis functions of AU  symmetry.
 There are    20 symmetry adapted cartesian basis functions of BU  symmetry.
 There are    20 symmetry adapted basis functions of AG  symmetry.
 There are    10 symmetry adapted basis functions of BG  symmetry.
 There are    10 symmetry adapted basis functions of AU  symmetry.
 There are    20 symmetry adapted basis functions of BU  symmetry.
    60 basis functions,    98 primitive gaussians,    60 cartesian basis functions
     9 alpha electrons        9 beta electrons
       nuclear repulsion energy        42.1338664302 Hartrees.
 NAtoms=    8 NActive=    8 NUniq=    2 SFac= 4.00D+00 NAtFMM=   60 NAOKFM=F Big=F
 Integral buffers will be    131072 words long.
 Raffenetti 2 integral format.
 Two-electron integral symmetry is turned on.
 One-electron integrals computed using PRISM.
 NBasis=    60 RedAO= T EigKep=  8.19D-03  NBF=    20    10    10    20
 NBsUse=    60 1.00D-06 EigRej= -1.00D+00 NBFU=    20    10    10    20
 ExpMin= 1.61D-01 ExpMax= 3.05D+03 ExpMxC= 4.57D+02 IAcc=3 IRadAn=         5 AccDes= 0.00D+00
 Harris functional with IExCor=  402 and IRadAn=       5 diagonalized for initial guess.
 HarFok:  IExCor=  402 AccDes= 0.00D+00 IRadAn=         5 IDoV= 1 UseB2=F ITyADJ=14
 ICtDFT=  3500011 ScaDFX=  1.000000  1.000000  1.000000  1.000000
 FoFCou: FMM=F IPFlag=           0 FMFlag=      100000 FMFlg1=           0
         NFxFlg=           0 DoJE=T BraDBF=F KetDBF=T FulRan=T
         wScrn=  0.000000 ICntrl=       500 IOpCl=  0 I1Cent=   200000004 NGrid=           0
         NMat0=    1 NMatS0=      1 NMatT0=    0 NMatD0=    1 NMtDS0=    0 NMtDT0=    0
 Petite list used in FoFCou.
 Initial guess orbital symmetries:
       Occupied  (A1G) (A2U) (A1G) (A2U) (EU) (EU) (A1G) (EG) (EG)
       Virtual   (A1G) (EU) (EU) (A2U) (EG) (EG) (A2U) (A1G) (EU)
                 (EU) (EG) (EG) (A2U) (A1G) (EU) (EU) (EG) (EG)
                 (A2U) (A1G) (EU) (EU) (A2U) (EG) (EG) (A1G) (EU)
                 (EU) (A1U) (A2G) (EG) (EG) (EU) (EU) (A2U) (EG)
                 (EG) (A1G) (A2U) (EU) (EU) (EG) (EG) (A1G) (A2U)
                 (EG) (EG) (EU) (EU) (A1G) (A2U)
 The electronic state of the initial guess is 1-A1G.
 Keep R1 ints in memory in symmetry-blocked form, NReq=15842553.
 Requested convergence on RMS density matrix=1.00D-08 within 128 cycles.
 Requested convergence on MAX density matrix=1.00D-06.
 Requested convergence on             energy=1.00D-06.
 No special actions if energy rises.
 Integral accuracy reduced to 1.0D-05 until final iterations.
 Initial convergence to 1.0D-05 achieved.  Increase integral accuracy.
 SCF Done:  E(RB3LYP) =  -79.8387416128     A.U. after    9 cycles
            NFock=  9  Conv=0.48D-09     -V/T= 2.0108
 DoSCS=F DFT=T ScalE2(SS,OS)=  1.000000  1.000000
 Range of M.O.s used for correlation:     1    60
 NBasis=    60 NAE=     9 NBE=     9 NFC=     0 NFV=     0
 NROrb=     60 NOA=     9 NOB=     9 NVA=    51 NVB=    51
 Symmetrizing basis deriv contribution to polar:
 IMax=3 JMax=2 DiffMx= 0.00D+00
 G2DrvN: will do     9 centers at a time, making    1 passes.
 Calling FoFCou, ICntrl=  3107 FMM=F I1Cent=   0 AccDes= 0.00D+00.
 End of G2Drv F.D. properties file   721 does not exist.
 End of G2Drv F.D. properties file   722 does not exist.
 End of G2Drv F.D. properties file   788 does not exist.
          IDoAtm=11111111
          Differentiating once with respect to electric field.
                with respect to dipole field.
          Differentiating once with respect to nuclear coordinates.
 Keep R1 ints in memory in symmetry-blocked form, NReq=15793978.
          There are     9 degrees of freedom in the 1st order CPHF.  IDoFFX=4 NUNeed=     9.
      9 vectors produced by pass  0 Test12= 5.10D-15 1.11D-08 XBig12= 1.24D+01 1.87D+00.
 AX will form     9 AO Fock derivatives at one time.
      9 vectors produced by pass  1 Test12= 5.10D-15 1.11D-08 XBig12= 4.39D-01 2.59D-01.
      9 vectors produced by pass  2 Test12= 5.10D-15 1.11D-08 XBig12= 4.35D-03 2.39D-02.
      9 vectors produced by pass  3 Test12= 5.10D-15 1.11D-08 XBig12= 2.48D-05 1.26D-03.
      9 vectors produced by pass  4 Test12= 5.10D-15 1.11D-08 XBig12= 9.31D-08 8.45D-05.
      7 vectors produced by pass  5 Test12= 5.10D-15 1.11D-08 XBig12= 8.90D-11 3.59D-06.
      3 vectors produced by pass  6 Test12= 5.10D-15 1.11D-08 XBig12= 7.97D-14 8.42D-08.
 InvSVY:  IOpt=1 It=  1 EMax= 4.44D-16
 Solved reduced A of dimension    55 with     9 vectors.
 Isotropic polarizability for W=    0.000000       23.38 Bohr**3.
 End of Minotr F.D. properties file   721 does not exist.
 End of Minotr F.D. properties file   722 does not exist.
 End of Minotr F.D. properties file   788 does not exist.

 **********************************************************************

            Population analysis using the SCF Density.

 **********************************************************************

 Orbital symmetries:
       Occupied  (A1G) (A2U) (A1G) (A2U) (EU) (EU) (A1G) (EG) (EG)
       Virtual   (A1G) (A2U) (EU) (EU) (EG) (EG) (A2U) (A1G) (EU)
                 (EU) (EG) (EG) (A2U) (EU) (EU) (A1G) (EG) (EG)
                 (A2U) (A1G) (EU) (EU) (A2U) (EG) (EG) (A1G) (A1U)
                 (A2G) (EU) (EU) (EG) (EG) (EU) (EU) (A2U) (EG)
                 (EG) (A1G) (A2U) (EU) (EU) (EG) (EG) (A1G) (A2U)
                 (EG) (EG) (EU) (EU) (A1G) (A2U)
 The electronic state is 1-A1G.
 Alpha  occ. eigenvalues --  -10.17265 -10.17244  -0.74765  -0.61192  -0.42941
 Alpha  occ. eigenvalues --   -0.42941  -0.36314  -0.33915  -0.33915
 Alpha virt. eigenvalues --    0.10498   0.15612   0.16389   0.16389   0.19006
 Alpha virt. eigenvalues --    0.19006   0.24204   0.50803   0.53951   0.53951
 Alpha virt. eigenvalues --    0.61920   0.61920   0.66611   0.86639   0.86639
 Alpha virt. eigenvalues --    0.88157   0.89476   0.89476   0.95352   1.06481
 Alpha virt. eigenvalues --    1.32784   1.32784   1.44062   1.67843   1.67843
 Alpha virt. eigenvalues --    1.86100   2.05742   2.05786   2.06507   2.06507
 Alpha virt. eigenvalues --    2.08733   2.08733   2.26633   2.26633   2.33838
 Alpha virt. eigenvalues --    2.47963   2.47963   2.68993   2.77409   2.79930
 Alpha virt. eigenvalues --    2.79930   2.90603   2.90603   3.14626   3.23724
 Alpha virt. eigenvalues --    3.39673   3.39673   3.52107   3.52107   4.32113
 Alpha virt. eigenvalues --    4.57961
          Condensed to atoms (all electrons):
               1          2          3          4          5          6
     1  C    4.871478   0.391215   0.391215   0.391215   0.373931  -0.034811
     2  H    0.391215   0.608122  -0.033110  -0.033110  -0.034811   0.004852
     3  H    0.391215  -0.033110   0.608122  -0.033110  -0.034811  -0.004016
     4  H    0.391215  -0.033110  -0.033110   0.608122  -0.034811  -0.004016
     5  C    0.373931  -0.034811  -0.034811  -0.034811   4.871478   0.391215
     6  H   -0.034811   0.004852  -0.004016  -0.004016   0.391215   0.608122
     7  H   -0.034811  -0.004016   0.004852  -0.004016   0.391215  -0.033110
     8  H   -0.034811  -0.004016  -0.004016   0.004852   0.391215  -0.033110
               7          8
     1  C   -0.034811  -0.034811
     2  H   -0.004016  -0.004016
     3  H    0.004852  -0.004016
     4  H   -0.004016   0.004852
     5  C    0.391215   0.391215
     6  H   -0.033110  -0.033110
     7  H    0.608122  -0.033110
     8  H   -0.033110   0.608122
 Mulliken charges:
               1
     1  C   -0.314622
     2  H    0.104874
     3  H    0.104874
     4  H    0.104874
     5  C   -0.314622
     6  H    0.104874
     7  H    0.104874
     8  H    0.104874
 Sum of Mulliken charges =  -0.00000
 Mulliken charges with hydrogens summed into heavy atoms:
               1
     1  C   -0.000000
     5  C   -0.000000
 APT charges:
               1
     1  C    0.106012
     2  H   -0.035337
     3  H   -0.035337
     4  H   -0.035337
     5  C    0.106012
     6  H   -0.035337
     7  H   -0.035337
     8  H   -0.035337
 Sum of APT charges =   0.00000
 APT charges with hydrogens summed into heavy atoms:
               1
     1  C    0.000001
     5  C    0.000001
 Electronic spatial extent (au):  <R**2>=            109.5926
 Charge=             -0.0000 electrons
 Dipole moment (field-independent basis, Debye):
    X=             -0.0000    Y=             -0.0000    Z=             -0.0000  Tot=              0.0000
 Quadrupole moment (field-independent basis, Debye-Ang):
   XX=            -14.7256   YY=            -14.7256   ZZ=            -15.1773
   XY=             -0.0000   XZ=             -0.0000   YZ=             -0.0000
 Traceless Quadrupole moment (field-independent basis, Debye-Ang):
   XX=              0.1506   YY=              0.1506   ZZ=             -0.3012
   XY=             -0.0000   XZ=             -0.0000   YZ=             -0.0000
 Octapole moment (field-independent basis, Debye-Ang**2):
  XXX=              0.0000  YYY=              0.0000  ZZZ=             -0.0000  XYY=              0.0000
  XXY=              0.0000  XXZ=              0.0000  XZZ=             -0.0000  YZZ=              0.0000
  YYZ=              0.0000  XYZ=             -0.0000
 Hexadecapole moment (field-independent basis, Debye-Ang**3):
 XXXX=            -28.8641 YYYY=            -28.8641 ZZZZ=            -92.5521 XXXY=              0.0000
 XXXZ=             -0.0000 YYYX=              0.0000 YYYZ=              1.2059 ZZZX=              0.0000
 ZZZY=             -0.0000 XXYY=             -9.6214 XXZZ=            -19.2006 YYZZ=            -19.2006
 XXYZ=             -1.2059 YYXZ=              0.0000 ZZXY=             -0.0000
 N-N= 4.213386643025D+01 E-N=-2.681009287304D+02  KE= 7.898607547239D+01
 Symmetry AG   KE= 3.892761059145D+01
 Symmetry BG   KE= 2.081609346158D+00
 Symmetry AU   KE= 1.810876651336D+00
 Symmetry BU   KE= 3.616597888345D+01
  Exact polarizability:  22.821   0.000  22.821  -0.000  -0.000  24.496
 Approx polarizability:  29.612  -0.000  29.612  -0.000   0.000  28.571
 Calling FoFJK, ICntrl=    100127 FMM=F ISym2X=1 I1Cent= 0 IOpClX= 0 NMat=1 NMatS=1 NMatT=0.
 Full mass-weighted force constant matrix:
 Low frequencies ---   -0.0013   -0.0009   -0.0003   15.0657   15.0662   32.0329
 Low frequencies ---  314.5458  828.4833  828.4833
 Diagonal vibrational polarizability:
        0.4563781       0.4563737       0.1694690
 Harmonic frequencies (cm**-1), IR intensities (KM/Mole), Raman scattering
 activities (A**4/AMU), depolarization ratios for plane and unpolarized
 incident light, reduced masses (AMU), force constants (mDyne/A),
 and normal coordinates:
                      1                      2                      3
                     A1U                    EU                     EU
 Frequencies --    314.5458               828.4833               828.4833
 Red. masses --      1.0078                 1.0580                 1.0580
 Frc consts  --      0.0587                 0.4278                 0.4278
 IR Inten    --      0.0000                 4.6323                 4.6323
  Atom  AN      X      Y      Z        X      Y      Z        X      Y      Z
     1   6    -0.00   0.00   0.00    -0.00   0.05  -0.00     0.05   0.00   0.00
     2   1     0.41   0.00  -0.00     0.00  -0.16   0.51    -0.22  -0.00   0.00
     3   1    -0.20  -0.35  -0.00    -0.03  -0.21  -0.25    -0.17  -0.03   0.44
     4   1    -0.20   0.35   0.00     0.03  -0.21  -0.25    -0.17   0.03  -0.44
     5   6    -0.00  -0.00  -0.00    -0.00   0.05  -0.00     0.05   0.00  -0.00
     6   1     0.41  -0.00  -0.00     0.00  -0.16   0.51    -0.22  -0.00   0.00
     7   1    -0.20  -0.35  -0.00    -0.03  -0.21  -0.25    -0.17  -0.03   0.44
     8   1    -0.20   0.35   0.00     0.03  -0.21  -0.25    -0.17   0.03  -0.44
                      4                      5                      6
                     A1G                    EG                     EG
 Frequencies --   1005.5272              1226.5658              1226.5659
 Red. masses --      3.2453                 1.4675                 1.4675
 Frc consts  --      1.9333                 1.3008                 1.3008
 IR Inten    --      0.0000                 0.0000                 0.0000
  Atom  AN      X      Y      Z        X      Y      Z        X      Y      Z
     1   6     0.00  -0.00   0.32     0.14   0.00   0.00    -0.00   0.14   0.00
     2   1    -0.00  -0.01   0.36    -0.26  -0.00   0.00     0.00  -0.06   0.50
     3   1    -0.01   0.01   0.36    -0.11  -0.09   0.43    -0.09  -0.21  -0.25
     4   1     0.01   0.01   0.36    -0.11   0.09  -0.43     0.09  -0.21  -0.25
     5   6    -0.00   0.00  -0.32    -0.14  -0.00   0.00     0.00  -0.14  -0.00
     6   1    -0.00   0.01  -0.36     0.26   0.00  -0.00    -0.00   0.06  -0.50
     7   1     0.01  -0.01  -0.36     0.11   0.09  -0.43     0.09   0.21   0.25
     8   1    -0.01  -0.01  -0.36     0.11  -0.09   0.43    -0.09   0.21   0.25
                      7                      8                      9
                     A2U                    A1G                    EG
 Frequencies --   1419.1871              1441.1691              1517.0210
 Red. masses --      1.1979                 1.2574                 1.0186
 Frc consts  --      1.4215                 1.5388                 1.3812
 IR Inten    --      0.1444                 0.0000                 0.0000
  Atom  AN      X      Y      Z        X      Y      Z        X      Y      Z
     1   6     0.00   0.00  -0.09    -0.00   0.00   0.11    -0.02  -0.00  -0.00
     2   1    -0.00  -0.17   0.37     0.00   0.17  -0.36     0.49  -0.00   0.00
     3   1    -0.14   0.08   0.37     0.15  -0.09  -0.36     0.03   0.26   0.25
     4   1     0.14   0.08   0.37    -0.15  -0.09  -0.36     0.03  -0.26  -0.25
     5   6    -0.00   0.00  -0.09    -0.00  -0.00  -0.11     0.02   0.00  -0.00
     6   1     0.00  -0.17   0.37     0.00  -0.17   0.36    -0.49   0.00  -0.00
     7   1    -0.14   0.08   0.37    -0.15   0.09   0.36    -0.03  -0.26  -0.25
     8   1     0.14   0.08   0.37     0.15   0.09   0.36    -0.03   0.26   0.25
                     10                     11                     12
                     EG                     EU                     EU
 Frequencies --   1517.0211              1521.6873              1521.6875
 Red. masses --      1.0186                 1.0616                 1.0616
 Frc consts  --      1.3812                 1.4484                 1.4484
 IR Inten    --      0.0000                 6.8844                 6.8845
  Atom  AN      X      Y      Z        X      Y      Z        X      Y      Z
     1   6     0.00  -0.02   0.00    -0.05  -0.00  -0.00     0.00  -0.05  -0.00
     2   1    -0.00  -0.12   0.29     0.52  -0.00   0.00    -0.00  -0.12   0.23
     3   1     0.26   0.34  -0.14     0.04   0.28   0.20     0.28   0.36  -0.11
     4   1    -0.26   0.34  -0.14     0.04  -0.28  -0.20    -0.28   0.36  -0.11
     5   6    -0.00   0.02  -0.00    -0.05  -0.00   0.00     0.00  -0.05  -0.00
     6   1     0.00   0.12  -0.29     0.52  -0.00   0.00    -0.00  -0.12   0.23
     7   1    -0.26  -0.34   0.14     0.04   0.28   0.20     0.28   0.36  -0.11
     8   1     0.26  -0.34   0.14     0.04  -0.28  -0.20    -0.28   0.36  -0.11
                     13                     14                     15
                     A1G                    A2U                    EG
 Frequencies --   3042.0790              3043.2683              3097.5091
 Red. masses --      1.0369                 1.0344                 1.1019
 Frc consts  --      5.6537                 5.6444                 6.2290
 IR Inten    --      0.0000                57.6587                 0.0000
  Atom  AN      X      Y      Z        X      Y      Z        X      Y      Z
     1   6    -0.00  -0.00  -0.04    -0.00   0.00  -0.03     0.00  -0.07   0.00
     2   1    -0.00   0.38   0.14    -0.00   0.38   0.14     0.00   0.54   0.20
     3   1     0.33  -0.19   0.14     0.33  -0.19   0.14    -0.24   0.12  -0.10
     4   1    -0.33  -0.19   0.14    -0.33  -0.19   0.14     0.24   0.12  -0.10
     5   6     0.00   0.00   0.04    -0.00   0.00  -0.03    -0.00   0.07  -0.00
     6   1     0.00  -0.38  -0.14    -0.00   0.38   0.14    -0.00  -0.54  -0.20
     7   1    -0.33   0.19  -0.14     0.33  -0.19   0.14     0.24  -0.12   0.10
     8   1     0.33   0.19  -0.14    -0.33  -0.19   0.14    -0.24  -0.12   0.10
                     16                     17                     18
                     EG                     EU                     EU
 Frequencies --   3097.5091              3121.3872              3121.3873
 Red. masses --      1.1019                 1.1030                 1.1030
 Frc consts  --      6.2290                 6.3316                 6.3316
 IR Inten    --      0.0000                70.5071                70.5059
  Atom  AN      X      Y      Z        X      Y      Z        X      Y      Z
     1   6    -0.07  -0.00   0.00    -0.07   0.00   0.00    -0.00  -0.07  -0.00
     2   1    -0.02   0.00   0.00    -0.01  -0.00  -0.00    -0.00   0.54   0.21
     3   1     0.40  -0.24   0.18     0.40  -0.24   0.18    -0.24   0.12  -0.10
     4   1     0.40   0.24  -0.18     0.40   0.24  -0.18     0.24   0.12  -0.10
     5   6     0.07   0.00  -0.00    -0.07   0.00   0.00    -0.00  -0.07  -0.00
     6   1     0.02  -0.00  -0.00    -0.01  -0.00  -0.00    -0.00   0.54   0.21
     7   1    -0.40   0.24  -0.18     0.40  -0.24   0.18    -0.24   0.12  -0.10
     8   1    -0.40  -0.24   0.18     0.40   0.24  -0.18     0.24   0.12  -0.10

 -------------------
 - Thermochemistry -
 -------------------
 Temperature   298.150 Kelvin.  Pressure   1.00000 Atm.
 Atom     1 has atomic number  6 and mass  12.00000
 Atom     2 has atomic number  1 and mass   1.00783
 Atom     3 has atomic number  1 and mass   1.00783
 Atom     4 has atomic number  1 and mass   1.00783
 Atom     5 has atomic number  6 and mass  12.00000
 Atom     6 has atomic number  1 and mass   1.00783
 Atom     7 has atomic number  1 and mass   1.00783
 Atom     8 has atomic number  1 and mass   1.00783
 Molecular mass:    30.04695 amu.
 Principal axes and moments of inertia in atomic units:
                           1         2         3
     Eigenvalues --    22.45755  90.66682  90.66682
           X            0.00000   0.98231  -0.18729
           Y            0.00000   0.18729   0.98231
           Z            1.00000   0.00000  -0.00000
 This molecule is a prolate symmetric top.
 Rotational symmetry number  6.
 Rotational temperatures (Kelvin)      3.85678     0.95530     0.95530
 Rotational constants (GHZ):          80.36233    19.90520    19.90520
 Zero-point vibrational energy     196732.4 (Joules/Mol)
                                   47.02017 (Kcal/Mol)
 Warning -- explicit consideration of   1 degrees of freedom as
           vibrations may cause significant error
 Vibrational temperatures:    452.56  1192.00  1192.00  1446.73  1764.75
          (Kelvin)           1764.75  2041.89  2073.52  2182.65  2182.65
                             2189.37  2189.37  4376.87  4378.58  4456.62
                             4456.62  4490.98  4490.98
 
 Zero-point correction=                           0.074931 (Hartree/Particle)
 Thermal correction to Energy=                    0.078405
 Thermal correction to Enthalpy=                  0.079349
 Thermal correction to Gibbs Free Energy=         0.053514
 Sum of electronic and zero-point Energies=            -79.763810
 Sum of electronic and thermal Energies=               -79.760337
 Sum of electronic and thermal Enthalpies=             -79.759393
 Sum of electronic and thermal Free Energies=          -79.785228
 
                     E (Thermal)             CV                S
                      KCal/Mol        Cal/Mol-Kelvin    Cal/Mol-Kelvin
 Total                   49.200             10.037             54.374
 Electronic               0.000              0.000              0.000
 Translational            0.889              2.981             36.134
 Rotational               0.889              2.981             16.291
 Vibrational             47.422              4.075              1.950
 Vibration     1          0.702              1.646              1.338
                       Q            Log10(Q)             Ln(Q)
 Total Bot       0.242798D-24        -24.614754        -56.677566
 Total V=0       0.710016D+10          9.851268         22.683384
 Vib (Bot)       0.462666D-34        -34.334733        -79.058644
 Vib (Bot)    1  0.599566D+00         -0.222163         -0.511548
 Vib (V=0)       0.135298D+01          0.131290          0.302306
 Vib (V=0)    1  0.128069D+01          0.107445          0.247401
 Electronic      0.100000D+01          0.000000          0.000000
 Translational   0.647373D+07          6.811154         15.683263
 Rotational      0.810632D+03          2.908824          6.697815
                           ----------------------------
                           ! Normal Mode     1        !
 --------------------------                            --------------------------
 ! Name  Definition              Value          Relative Weight (%)             !
 --------------------------------------------------------------------------------
 ! R1    R(1,2)                  0.0                     0.0                    !
 ! R2    R(1,3)                  0.0                     0.0                    !
 ! R3    R(1,4)                  0.0                     0.0                    !
 ! R4    R(1,5)                  0.0                     0.0                    !
 ! R5    R(5,6)                  0.0                     0.0                    !
 ! R6    R(5,7)                  0.0                     0.0                    !
 ! R7    R(5,8)                  0.0                     0.0                    !
 ! A1    A(2,1,3)                0.0                     0.0                    !
 ! A2    A(2,1,4)                0.0                     0.0                    !
 ! A3    A(2,1,5)                0.0                     0.0                    !
 ! A4    A(3,1,4)                0.0                     0.0                    !
 ! A5    A(3,1,5)                0.0                     0.0                    !
 ! A6    A(4,1,5)                0.0                     0.0                    !
 ! A7    A(1,5,6)                0.0                     0.0                    !
 ! A8    A(1,5,7)                0.0                     0.0                    !
 ! A9    A(1,5,8)                0.0                     0.0                    !
 ! A10   A(6,5,7)                0.0                     0.0                    !
 ! A11   A(6,5,8)                0.0                     0.0                    !
 ! A12   A(7,5,8)                0.0                     0.0                    !
 ! D1    D(2,1,5,6)             -0.4237                 11.1                    !
 ! D2    D(2,1,5,7)             -0.4237                 11.1                    !
 ! D3    D(2,1,5,8)             -0.4237                 11.1                    !
 ! D4    D(3,1,5,6)             -0.4237                 11.1                    !
 ! D5    D(3,1,5,7)             -0.4237                 11.1                    !
 ! D6    D(3,1,5,8)             -0.4237                 11.1                    !
 ! D7    D(4,1,5,6)             -0.4237                 11.1                    !
 ! D8    D(4,1,5,7)             -0.4237                 11.1                    !
 ! D9    D(4,1,5,8)             -0.4237                 11.1                    !
 --------------------------------------------------------------------------------
                           ----------------------------
                           ! Normal Mode     2        !
 --------------------------                            --------------------------
 ! Name  Definition              Value          Relative Weight (%)             !
 --------------------------------------------------------------------------------
 ! R1    R(1,2)                 -0.0049                  0.2                    !
 ! R2    R(1,3)                  0.0024                  0.1                    !
 ! R3    R(1,4)                  0.0024                  0.1                    !
 ! R4    R(1,5)                  0.0                     0.0                    !
 ! R5    R(5,6)                  0.0049                  0.2                    !
 ! R6    R(5,7)                 -0.0024                  0.1                    !
 ! R7    R(5,8)                 -0.0024                  0.1                    !
 ! A1    A(2,1,3)                0.0252                  1.1                    !
 ! A2    A(2,1,4)                0.0252                  1.1                    !
 ! A3    A(2,1,5)                0.2644                 11.7                    !
 ! A4    A(3,1,4)               -0.0503                  2.2                    !
 ! A5    A(3,1,5)               -0.1322                  5.9                    !
 ! A6    A(4,1,5)               -0.1322                  5.9                    !
 ! A7    A(1,5,6)               -0.2644                 11.7                    !
 ! A8    A(1,5,7)                0.1322                  5.9                    !
 ! A9    A(1,5,8)                0.1322                  5.9                    !
 ! A10   A(6,5,7)               -0.0252                  1.1                    !
 ! A11   A(6,5,8)               -0.0252                  1.1                    !
 ! A12   A(7,5,8)                0.0503                  2.2                    !
 ! D1    D(2,1,5,6)              0.0                     0.0                    !
 ! D2    D(2,1,5,7)             -0.1216                  5.4                    !
 ! D3    D(2,1,5,8)              0.1216                  5.4                    !
 ! D4    D(3,1,5,6)             -0.1216                  5.4                    !
 ! D5    D(3,1,5,7)             -0.2432                 10.8                    !
 ! D6    D(3,1,5,8)              0.0                     0.0                    !
 ! D7    D(4,1,5,6)              0.1216                  5.4                    !
 ! D8    D(4,1,5,7)              0.0                     0.0                    !
 ! D9    D(4,1,5,8)              0.2432                 10.8                    !
 --------------------------------------------------------------------------------
                           ----------------------------
                           ! Normal Mode     3        !
 --------------------------                            --------------------------
 ! Name  Definition              Value          Relative Weight (%)             !
 --------------------------------------------------------------------------------
 ! R1    R(1,2)                  0.0                     0.0                    !
 ! R2    R(1,3)                 -0.0042                  0.2                    !
 ! R3    R(1,4)                  0.0042                  0.2                    !
 ! R4    R(1,5)                  0.0                     0.0                    !
 ! R5    R(5,6)                  0.0                     0.0                    !
 ! R6    R(5,7)                  0.0042                  0.2                    !
 ! R7    R(5,8)                 -0.0042                  0.2                    !
 ! A1    A(2,1,3)                0.0436                  2.0                    !
 ! A2    A(2,1,4)               -0.0436                  2.0                    !
 ! A3    A(2,1,5)                0.0                     0.0                    !
 ! A4    A(3,1,4)                0.0                     0.0                    !
 ! A5    A(3,1,5)                0.2289                 10.3                    !
 ! A6    A(4,1,5)               -0.2289                 10.3                    !
 ! A7    A(1,5,6)                0.0                     0.0                    !
 ! A8    A(1,5,7)               -0.2289                 10.3                    !
 ! A9    A(1,5,8)                0.2289                 10.3                    !
 ! A10   A(6,5,7)               -0.0436                  2.0                    !
 ! A11   A(6,5,8)                0.0436                  2.0                    !
 ! A12   A(7,5,8)                0.0                     0.0                    !
 ! D1    D(2,1,5,6)              0.2808                 12.6                    !
 ! D2    D(2,1,5,7)              0.0702                  3.1                    !
 ! D3    D(2,1,5,8)              0.0702                  3.1                    !
 ! D4    D(3,1,5,6)              0.0702                  3.1                    !
 ! D5    D(3,1,5,7)             -0.1404                  6.3                    !
 ! D6    D(3,1,5,8)             -0.1404                  6.3                    !
 ! D7    D(4,1,5,6)              0.0702                  3.1                    !
 ! D8    D(4,1,5,7)             -0.1404                  6.3                    !
 ! D9    D(4,1,5,8)             -0.1404                  6.3                    !
 --------------------------------------------------------------------------------
                           ----------------------------
                           ! Normal Mode     4        !
 --------------------------                            --------------------------
 ! Name  Definition              Value          Relative Weight (%)             !
 --------------------------------------------------------------------------------
 ! R1    R(1,2)                  0.0044                  0.5                    !
 ! R2    R(1,3)                  0.0044                  0.5                    !
 ! R3    R(1,4)                  0.0044                  0.5                    !
 ! R4    R(1,5)                  0.6381                 67.6                    !
 ! R5    R(5,6)                  0.0044                  0.5                    !
 ! R6    R(5,7)                  0.0044                  0.5                    !
 ! R7    R(5,8)                  0.0044                  0.5                    !
 ! A1    A(2,1,3)               -0.0241                  2.6                    !
 ! A2    A(2,1,4)               -0.0241                  2.6                    !
 ! A3    A(2,1,5)                0.0226                  2.4                    !
 ! A4    A(3,1,4)               -0.0241                  2.6                    !
 ! A5    A(3,1,5)                0.0226                  2.4                    !
 ! A6    A(4,1,5)                0.0226                  2.4                    !
 ! A7    A(1,5,6)                0.0226                  2.4                    !
 ! A8    A(1,5,7)                0.0226                  2.4                    !
 ! A9    A(1,5,8)                0.0226                  2.4                    !
 ! A10   A(6,5,7)               -0.0241                  2.6                    !
 ! A11   A(6,5,8)               -0.0241                  2.6                    !
 ! A12   A(7,5,8)               -0.0241                  2.6                    !
 ! D1    D(2,1,5,6)              0.0                     0.0                    !
 ! D2    D(2,1,5,7)              0.0                     0.0                    !
 ! D3    D(2,1,5,8)              0.0                     0.0                    !
 ! D4    D(3,1,5,6)              0.0                     0.0                    !
 ! D5    D(3,1,5,7)              0.0                     0.0                    !
 ! D6    D(3,1,5,8)              0.0                     0.0                    !
 ! D7    D(4,1,5,6)              0.0                     0.0                    !
 ! D8    D(4,1,5,7)              0.0                     0.0                    !
 ! D9    D(4,1,5,8)              0.0                     0.0                    !
 --------------------------------------------------------------------------------
                           ----------------------------
                           ! Normal Mode     5        !
 --------------------------                            --------------------------
 ! Name  Definition              Value          Relative Weight (%)             !
 --------------------------------------------------------------------------------
 ! R1    R(1,2)                  0.0                     0.0                    !
 ! R2    R(1,3)                 -0.0061                  0.2                    !
 ! R3    R(1,4)                  0.0061                  0.2                    !
 ! R4    R(1,5)                  0.0                     0.0                    !
 ! R5    R(5,6)                  0.0                     0.0                    !
 ! R6    R(5,7)                 -0.0061                  0.2                    !
 ! R7    R(5,8)                  0.0061                  0.2                    !
 ! A1    A(2,1,3)                0.1266                  3.9                    !
 ! A2    A(2,1,4)               -0.1266                  3.9                    !
 ! A3    A(2,1,5)                0.0                     0.0                    !
 ! A4    A(3,1,4)                0.0                     0.0                    !
 ! A5    A(3,1,5)                0.3121                  9.5                    !
 ! A6    A(4,1,5)               -0.3121                  9.5                    !
 ! A7    A(1,5,6)                0.0                     0.0                    !
 ! A8    A(1,5,7)                0.3121                  9.5                    !
 ! A9    A(1,5,8)               -0.3121                  9.5                    !
 ! A10   A(6,5,7)                0.1266                  3.9                    !
 ! A11   A(6,5,8)               -0.1266                  3.9                    !
 ! A12   A(7,5,8)                0.0                     0.0                    !
 ! D1    D(2,1,5,6)              0.0                     0.0                    !
 ! D2    D(2,1,5,7)              0.3725                 11.4                    !
 ! D3    D(2,1,5,8)              0.3725                 11.4                    !
 ! D4    D(3,1,5,6)             -0.3725                 11.4                    !
 ! D5    D(3,1,5,7)              0.0                     0.0                    !
 ! D6    D(3,1,5,8)              0.0                     0.0                    !
 ! D7    D(4,1,5,6)             -0.3725                 11.4                    !
 ! D8    D(4,1,5,7)              0.0                     0.0                    !
 ! D9    D(4,1,5,8)              0.0                     0.0                    !
 --------------------------------------------------------------------------------
                           ----------------------------
                           ! Normal Mode     6        !
 --------------------------                            --------------------------
 ! Name  Definition              Value          Relative Weight (%)             !
 --------------------------------------------------------------------------------
 ! R1    R(1,2)                 -0.0071                  0.2                    !
 ! R2    R(1,3)                  0.0035                  0.1                    !
 ! R3    R(1,4)                  0.0035                  0.1                    !
 ! R4    R(1,5)                  0.0                     0.0                    !
 ! R5    R(5,6)                 -0.0071                  0.2                    !
 ! R6    R(5,7)                  0.0035                  0.1                    !
 ! R7    R(5,8)                  0.0035                  0.1                    !
 ! A1    A(2,1,3)                0.0731                  1.9                    !
 ! A2    A(2,1,4)                0.0731                  1.9                    !
 ! A3    A(2,1,5)                0.3604                  9.5                    !
 ! A4    A(3,1,4)               -0.1462                  3.9                    !
 ! A5    A(3,1,5)               -0.1802                  4.8                    !
 ! A6    A(4,1,5)               -0.1802                  4.8                    !
 ! A7    A(1,5,6)                0.3604                  9.5                    !
 ! A8    A(1,5,7)               -0.1802                  4.8                    !
 ! A9    A(1,5,8)               -0.1802                  4.8                    !
 ! A10   A(6,5,7)                0.0731                  1.9                    !
 ! A11   A(6,5,8)                0.0731                  1.9                    !
 ! A12   A(7,5,8)               -0.1462                  3.9                    !
 ! D1    D(2,1,5,6)              0.0                     0.0                    !
 ! D2    D(2,1,5,7)              0.2151                  5.7                    !
 ! D3    D(2,1,5,8)             -0.2151                  5.7                    !
 ! D4    D(3,1,5,6)             -0.2151                  5.7                    !
 ! D5    D(3,1,5,7)              0.0                     0.0                    !
 ! D6    D(3,1,5,8)             -0.4301                 11.4                    !
 ! D7    D(4,1,5,6)              0.2151                  5.7                    !
 ! D8    D(4,1,5,7)              0.4301                 11.4                    !
 ! D9    D(4,1,5,8)              0.0                     0.0                    !
 --------------------------------------------------------------------------------
                           ----------------------------
                           ! Normal Mode     7        !
 --------------------------                            --------------------------
 ! Name  Definition              Value          Relative Weight (%)             !
 --------------------------------------------------------------------------------
 ! R1    R(1,2)                  0.0137                  0.5                    !
 ! R2    R(1,3)                  0.0137                  0.5                    !
 ! R3    R(1,4)                  0.0137                  0.5                    !
 ! R4    R(1,5)                  0.0                     0.0                    !
 ! R5    R(5,6)                 -0.0137                  0.5                    !
 ! R6    R(5,7)                 -0.0137                  0.5                    !
 ! R7    R(5,8)                 -0.0137                  0.5                    !
 ! A1    A(2,1,3)               -0.2532                  8.4                    !
 ! A2    A(2,1,4)               -0.2532                  8.4                    !
 ! A3    A(2,1,5)                0.2371                  7.8                    !
 ! A4    A(3,1,4)               -0.2532                  8.4                    !
 ! A5    A(3,1,5)                0.2371                  7.8                    !
 ! A6    A(4,1,5)                0.2371                  7.8                    !
 ! A7    A(1,5,6)               -0.2371                  7.8                    !
 ! A8    A(1,5,7)               -0.2371                  7.8                    !
 ! A9    A(1,5,8)               -0.2371                  7.8                    !
 ! A10   A(6,5,7)                0.2532                  8.4                    !
 ! A11   A(6,5,8)                0.2532                  8.4                    !
 ! A12   A(7,5,8)                0.2532                  8.4                    !
 ! D1    D(2,1,5,6)              0.0                     0.0                    !
 ! D2    D(2,1,5,7)              0.0                     0.0                    !
 ! D3    D(2,1,5,8)              0.0                     0.0                    !
 ! D4    D(3,1,5,6)              0.0                     0.0                    !
 ! D5    D(3,1,5,7)              0.0                     0.0                    !
 ! D6    D(3,1,5,8)              0.0                     0.0                    !
 ! D7    D(4,1,5,6)              0.0                     0.0                    !
 ! D8    D(4,1,5,7)              0.0                     0.0                    !
 ! D9    D(4,1,5,8)              0.0                     0.0                    !
 --------------------------------------------------------------------------------
                           ----------------------------
                           ! Normal Mode     8        !
 --------------------------                            --------------------------
 ! Name  Definition              Value          Relative Weight (%)             !
 --------------------------------------------------------------------------------
 ! R1    R(1,2)                 -0.0101                  0.3                    !
 ! R2    R(1,3)                 -0.0101                  0.3                    !
 ! R3    R(1,4)                 -0.0101                  0.3                    !
 ! R4    R(1,5)                  0.2131                  6.5                    !
 ! R5    R(5,6)                 -0.0101                  0.3                    !
 ! R6    R(5,7)                 -0.0101                  0.3                    !
 ! R7    R(5,8)                 -0.0101                  0.3                    !
 ! A1    A(2,1,3)                0.2589                  7.9                    !
 ! A2    A(2,1,4)                0.2589                  7.9                    !
 ! A3    A(2,1,5)               -0.2425                  7.4                    !
 ! A4    A(3,1,4)                0.2589                  7.9                    !
 ! A5    A(3,1,5)               -0.2425                  7.4                    !
 ! A6    A(4,1,5)               -0.2425                  7.4                    !
 ! A7    A(1,5,6)               -0.2425                  7.4                    !
 ! A8    A(1,5,7)               -0.2425                  7.4                    !
 ! A9    A(1,5,8)               -0.2425                  7.4                    !
 ! A10   A(6,5,7)                0.2589                  7.9                    !
 ! A11   A(6,5,8)                0.2589                  7.9                    !
 ! A12   A(7,5,8)                0.2589                  7.9                    !
 ! D1    D(2,1,5,6)              0.0                     0.0                    !
 ! D2    D(2,1,5,7)              0.0                     0.0                    !
 ! D3    D(2,1,5,8)              0.0                     0.0                    !
 ! D4    D(3,1,5,6)              0.0                     0.0                    !
 ! D5    D(3,1,5,7)              0.0                     0.0                    !
 ! D6    D(3,1,5,8)              0.0                     0.0                    !
 ! D7    D(4,1,5,6)              0.0                     0.0                    !
 ! D8    D(4,1,5,7)              0.0                     0.0                    !
 ! D9    D(4,1,5,8)              0.0                     0.0                    !
 --------------------------------------------------------------------------------
                           ----------------------------
                           ! Normal Mode     9        !
 --------------------------                            --------------------------
 ! Name  Definition              Value          Relative Weight (%)             !
 --------------------------------------------------------------------------------
 ! R1    R(1,2)                  0.0                     0.0                    !
 ! R2    R(1,3)                  0.0147                  0.4                    !
 ! R3    R(1,4)                 -0.0147                  0.4                    !
 ! R4    R(1,5)                  0.0                     0.0                    !
 ! R5    R(5,6)                  0.0                     0.0                    !
 ! R6    R(5,7)                  0.0147                  0.4                    !
 ! R7    R(5,8)                 -0.0147                  0.4                    !
 ! A1    A(2,1,3)               -0.379                  10.4                    !
 ! A2    A(2,1,4)                0.379                  10.4                    !
 ! A3    A(2,1,5)                0.0                     0.0                    !
 ! A4    A(3,1,4)                0.0                     0.0                    !
 ! A5    A(3,1,5)                0.1137                  3.1                    !
 ! A6    A(4,1,5)               -0.1137                  3.1                    !
 ! A7    A(1,5,6)                0.0                     0.0                    !
 ! A8    A(1,5,7)                0.1137                  3.1                    !
 ! A9    A(1,5,8)               -0.1137                  3.1                    !
 ! A10   A(6,5,7)               -0.379                  10.4                    !
 ! A11   A(6,5,8)                0.379                  10.4                    !
 ! A12   A(7,5,8)                0.0                     0.0                    !
 ! D1    D(2,1,5,6)              0.0                     0.0                    !
 ! D2    D(2,1,5,7)             -0.4043                 11.1                    !
 ! D3    D(2,1,5,8)             -0.4043                 11.1                    !
 ! D4    D(3,1,5,6)              0.4043                 11.1                    !
 ! D5    D(3,1,5,7)              0.0                     0.0                    !
 ! D6    D(3,1,5,8)              0.0                     0.0                    !
 ! D7    D(4,1,5,6)              0.4043                 11.1                    !
 ! D8    D(4,1,5,7)              0.0                     0.0                    !
 ! D9    D(4,1,5,8)              0.0                     0.0                    !
 --------------------------------------------------------------------------------
                           ----------------------------
                           ! Normal Mode    10        !
 --------------------------                            --------------------------
 ! Name  Definition              Value          Relative Weight (%)             !
 --------------------------------------------------------------------------------
 ! R1    R(1,2)                  0.017                   0.4                    !
 ! R2    R(1,3)                 -0.0085                  0.2                    !
 ! R3    R(1,4)                 -0.0085                  0.2                    !
 ! R4    R(1,5)                  0.0                     0.0                    !
 ! R5    R(5,6)                  0.017                   0.4                    !
 ! R6    R(5,7)                 -0.0085                  0.2                    !
 ! R7    R(5,8)                 -0.0085                  0.2                    !
 ! A1    A(2,1,3)               -0.2188                  5.2                    !
 ! A2    A(2,1,4)               -0.2188                  5.2                    !
 ! A3    A(2,1,5)                0.1313                  3.1                    !
 ! A4    A(3,1,4)                0.4377                 10.4                    !
 ! A5    A(3,1,5)               -0.0657                  1.6                    !
 ! A6    A(4,1,5)               -0.0657                  1.6                    !
 ! A7    A(1,5,6)                0.1313                  3.1                    !
 ! A8    A(1,5,7)               -0.0657                  1.6                    !
 ! A9    A(1,5,8)               -0.0657                  1.6                    !
 ! A10   A(6,5,7)               -0.2188                  5.2                    !
 ! A11   A(6,5,8)               -0.2188                  5.2                    !
 ! A12   A(7,5,8)                0.4377                 10.4                    !
 ! D1    D(2,1,5,6)              0.0                     0.0                    !
 ! D2    D(2,1,5,7)             -0.2334                  5.5                    !
 ! D3    D(2,1,5,8)              0.2334                  5.5                    !
 ! D4    D(3,1,5,6)              0.2334                  5.5                    !
 ! D5    D(3,1,5,7)              0.0                     0.0                    !
 ! D6    D(3,1,5,8)              0.4669                 11.1                    !
 ! D7    D(4,1,5,6)             -0.2334                  5.5                    !
 ! D8    D(4,1,5,7)             -0.4669                 11.1                    !
 ! D9    D(4,1,5,8)              0.0                     0.0                    !
 --------------------------------------------------------------------------------
                           ----------------------------
                           ! Normal Mode    11        !
 --------------------------                            --------------------------
 ! Name  Definition              Value          Relative Weight (%)             !
 --------------------------------------------------------------------------------
 ! R1    R(1,2)                  0.0                     0.0                    !
 ! R2    R(1,3)                  0.012                   0.3                    !
 ! R3    R(1,4)                 -0.012                   0.3                    !
 ! R4    R(1,5)                  0.0                     0.0                    !
 ! R5    R(5,6)                  0.0                     0.0                    !
 ! R6    R(5,7)                 -0.012                   0.3                    !
 ! R7    R(5,8)                  0.012                   0.3                    !
 ! A1    A(2,1,3)               -0.3991                  9.1                    !
 ! A2    A(2,1,4)                0.3991                  9.1                    !
 ! A3    A(2,1,5)                0.0                     0.0                    !
 ! A4    A(3,1,4)                0.0                     0.0                    !
 ! A5    A(3,1,5)                0.099                   2.3                    !
 ! A6    A(4,1,5)               -0.099                   2.3                    !
 ! A7    A(1,5,6)                0.0                     0.0                    !
 ! A8    A(1,5,7)               -0.099                   2.3                    !
 ! A9    A(1,5,8)                0.099                   2.3                    !
 ! A10   A(6,5,7)                0.3991                  9.1                    !
 ! A11   A(6,5,8)               -0.3991                  9.1                    !
 ! A12   A(7,5,8)                0.0                     0.0                    !
 ! D1    D(2,1,5,6)             -0.5864                 13.4                    !
 ! D2    D(2,1,5,7)             -0.1466                  3.3                    !
 ! D3    D(2,1,5,8)             -0.1466                  3.3                    !
 ! D4    D(3,1,5,6)             -0.1466                  3.3                    !
 ! D5    D(3,1,5,7)              0.2932                  6.7                    !
 ! D6    D(3,1,5,8)              0.2932                  6.7                    !
 ! D7    D(4,1,5,6)             -0.1466                  3.3                    !
 ! D8    D(4,1,5,7)              0.2932                  6.7                    !
 ! D9    D(4,1,5,8)              0.2932                  6.7                    !
 --------------------------------------------------------------------------------
                           ----------------------------
                           ! Normal Mode    12        !
 --------------------------                            --------------------------
 ! Name  Definition              Value          Relative Weight (%)             !
 --------------------------------------------------------------------------------
 ! R1    R(1,2)                  0.0139                  0.3                    !
 ! R2    R(1,3)                 -0.0069                  0.2                    !
 ! R3    R(1,4)                 -0.0069                  0.2                    !
 ! R4    R(1,5)                  0.0                     0.0                    !
 ! R5    R(5,6)                 -0.0139                  0.3                    !
 ! R6    R(5,7)                  0.0069                  0.2                    !
 ! R7    R(5,8)                  0.0069                  0.2                    !
 ! A1    A(2,1,3)               -0.2304                  5.3                    !
 ! A2    A(2,1,4)               -0.2304                  5.3                    !
 ! A3    A(2,1,5)                0.1143                  2.6                    !
 ! A4    A(3,1,4)                0.4609                 10.5                    !
 ! A5    A(3,1,5)               -0.0572                  1.3                    !
 ! A6    A(4,1,5)               -0.0572                  1.3                    !
 ! A7    A(1,5,6)               -0.1143                  2.6                    !
 ! A8    A(1,5,7)                0.0572                  1.3                    !
 ! A9    A(1,5,8)                0.0572                  1.3                    !
 ! A10   A(6,5,7)                0.2304                  5.3                    !
 ! A11   A(6,5,8)                0.2304                  5.3                    !
 ! A12   A(7,5,8)               -0.4609                 10.5                    !
 ! D1    D(2,1,5,6)              0.0                     0.0                    !
 ! D2    D(2,1,5,7)              0.2539                  5.8                    !
 ! D3    D(2,1,5,8)             -0.2539                  5.8                    !
 ! D4    D(3,1,5,6)              0.2539                  5.8                    !
 ! D5    D(3,1,5,7)              0.5078                 11.6                    !
 ! D6    D(3,1,5,8)              0.0                     0.0                    !
 ! D7    D(4,1,5,6)             -0.2539                  5.8                    !
 ! D8    D(4,1,5,7)              0.0                     0.0                    !
 ! D9    D(4,1,5,8)             -0.5078                 11.6                    !
 --------------------------------------------------------------------------------
                           ----------------------------
                           ! Normal Mode    13        !
 --------------------------                            --------------------------
 ! Name  Definition              Value          Relative Weight (%)             !
 --------------------------------------------------------------------------------
 ! R1    R(1,2)                  0.4209                 15.3                    !
 ! R2    R(1,3)                  0.4209                 15.3                    !
 ! R3    R(1,4)                  0.4209                 15.3                    !
 ! R4    R(1,5)                 -0.0727                  2.6                    !
 ! R5    R(5,6)                  0.4209                 15.3                    !
 ! R6    R(5,7)                  0.4209                 15.3                    !
 ! R7    R(5,8)                  0.4209                 15.3                    !
 ! A1    A(2,1,3)               -0.0128                  0.5                    !
 ! A2    A(2,1,4)               -0.0128                  0.5                    !
 ! A3    A(2,1,5)                0.0119                  0.4                    !
 ! A4    A(3,1,4)               -0.0128                  0.5                    !
 ! A5    A(3,1,5)                0.0119                  0.4                    !
 ! A6    A(4,1,5)                0.0119                  0.4                    !
 ! A7    A(1,5,6)                0.0119                  0.4                    !
 ! A8    A(1,5,7)                0.0119                  0.4                    !
 ! A9    A(1,5,8)                0.0119                  0.4                    !
 ! A10   A(6,5,7)               -0.0128                  0.5                    !
 ! A11   A(6,5,8)               -0.0128                  0.5                    !
 ! A12   A(7,5,8)               -0.0128                  0.5                    !
 ! D1    D(2,1,5,6)              0.0                     0.0                    !
 ! D2    D(2,1,5,7)              0.0                     0.0                    !
 ! D3    D(2,1,5,8)              0.0                     0.0                    !
 ! D4    D(3,1,5,6)              0.0                     0.0                    !
 ! D5    D(3,1,5,7)              0.0                     0.0                    !
 ! D6    D(3,1,5,8)              0.0                     0.0                    !
 ! D7    D(4,1,5,6)              0.0                     0.0                    !
 ! D8    D(4,1,5,7)              0.0                     0.0                    !
 ! D9    D(4,1,5,8)              0.0                     0.0                    !
 --------------------------------------------------------------------------------
                           ----------------------------
                           ! Normal Mode    14        !
 --------------------------                            --------------------------
 ! Name  Definition              Value          Relative Weight (%)             !
 --------------------------------------------------------------------------------
 ! R1    R(1,2)                  0.4203                 15.9                    !
 ! R2    R(1,3)                  0.4203                 15.9                    !
 ! R3    R(1,4)                  0.4203                 15.9                    !
 ! R4    R(1,5)                  0.0                     0.0                    !
 ! R5    R(5,6)                 -0.4203                 15.9                    !
 ! R6    R(5,7)                 -0.4203                 15.9                    !
 ! R7    R(5,8)                 -0.4203                 15.9                    !
 ! A1    A(2,1,3)               -0.0108                  0.4                    !
 ! A2    A(2,1,4)               -0.0108                  0.4                    !
 ! A3    A(2,1,5)                0.0101                  0.4                    !
 ! A4    A(3,1,4)               -0.0108                  0.4                    !
 ! A5    A(3,1,5)                0.0101                  0.4                    !
 ! A6    A(4,1,5)                0.0101                  0.4                    !
 ! A7    A(1,5,6)               -0.0101                  0.4                    !
 ! A8    A(1,5,7)               -0.0101                  0.4                    !
 ! A9    A(1,5,8)               -0.0101                  0.4                    !
 ! A10   A(6,5,7)                0.0108                  0.4                    !
 ! A11   A(6,5,8)                0.0108                  0.4                    !
 ! A12   A(7,5,8)                0.0108                  0.4                    !
 ! D1    D(2,1,5,6)              0.0                     0.0                    !
 ! D2    D(2,1,5,7)              0.0                     0.0                    !
 ! D3    D(2,1,5,8)              0.0                     0.0                    !
 ! D4    D(3,1,5,6)              0.0                     0.0                    !
 ! D5    D(3,1,5,7)              0.0                     0.0                    !
 ! D6    D(3,1,5,8)              0.0                     0.0                    !
 ! D7    D(4,1,5,6)              0.0                     0.0                    !
 ! D8    D(4,1,5,7)              0.0                     0.0                    !
 ! D9    D(4,1,5,8)              0.0                     0.0                    !
 --------------------------------------------------------------------------------
                           ----------------------------
                           ! Normal Mode    15        !
 --------------------------                            --------------------------
 ! Name  Definition              Value          Relative Weight (%)             !
 --------------------------------------------------------------------------------
 ! R1    R(1,2)                  0.6355                 19.9                    !
 ! R2    R(1,3)                 -0.3178                  10.0                   !
 ! R3    R(1,4)                 -0.3177                  10.0                   !
 ! R4    R(1,5)                  0.0                     0.0                    !
 ! R5    R(5,6)                  0.6355                 19.9                    !
 ! R6    R(5,7)                 -0.3178                  10.0                   !
 ! R7    R(5,8)                 -0.3177                  10.0                   !
 ! A1    A(2,1,3)               -0.0137                  0.4                    !
[...]
             26           27           28
     1            4            4            4
     2            1            1            1
     3            5            5            5
     4            6            7            8
 B Matrix in FormBX:
                 1             2             3             4             5 
      1   0.000000D+00 -0.806412D+00  0.806412D+00  0.000000D+00  0.000000D+00
      2  -0.931164D+00  0.465582D+00  0.465582D+00  0.000000D+00  0.931164D+00
      3  -0.364600D+00 -0.364600D+00 -0.364600D+00  0.100000D+01  0.364600D+00
      4   0.000000D+00  0.806412D+00 -0.806412D+00  0.000000D+00  0.000000D+00
      5   0.931164D+00 -0.465582D+00 -0.465582D+00  0.000000D+00 -0.931164D+00
      6   0.364600D+00  0.364600D+00  0.364600D+00 -0.100000D+01 -0.364600D+00
      7   0.000000D+00  0.000000D+00  0.000000D+00  0.000000D+00  0.000000D+00
      8   0.000000D+00  0.000000D+00  0.000000D+00  0.000000D+00  0.000000D+00
      9   0.000000D+00  0.000000D+00  0.000000D+00  0.000000D+00  0.000000D+00
     10   0.000000D+00  0.000000D+00  0.000000D+00  0.000000D+00  0.000000D+00
     11   0.000000D+00  0.000000D+00  0.000000D+00  0.000000D+00  0.000000D+00
     12   0.000000D+00  0.000000D+00  0.000000D+00  0.000000D+00  0.000000D+00
                 6             7             8             9            10 
      1   0.806412D+00 -0.806412D+00 -0.408541D+00  0.408541D+00  0.000000D+00
      2  -0.465582D+00 -0.465582D+00  0.940654D-01  0.940654D-01 -0.176169D+00
      3   0.364600D+00  0.364600D+00 -0.240237D+00 -0.240237D+00  0.449924D+00
      4  -0.806412D+00  0.806412D+00  0.531348D+00 -0.531348D+00  0.000000D+00
      5   0.465582D+00  0.465582D+00  0.306774D+00  0.306774D+00  0.522017D+00
      6  -0.364600D+00 -0.364600D+00  0.480473D+00  0.480473D+00 -0.449924D+00
      7   0.000000D+00  0.000000D+00 -0.122807D+00  0.122807D+00  0.000000D+00
      8   0.000000D+00  0.000000D+00 -0.400839D+00 -0.400839D+00 -0.345848D+00
      9   0.000000D+00  0.000000D+00 -0.240237D+00 -0.240237D+00  0.000000D+00
     10   0.000000D+00  0.000000D+00  0.000000D+00  0.000000D+00  0.000000D+00
     11   0.000000D+00  0.000000D+00  0.000000D+00  0.000000D+00  0.000000D+00
     12   0.000000D+00  0.000000D+00  0.000000D+00  0.000000D+00  0.000000D+00
                11            12            13            14            15 
      1   0.285733D+00 -0.152567D+00  0.152567D+00  0.000000D+00  0.299513D+00
      2   0.306774D+00  0.880846D-01  0.880846D-01  0.345848D+00 -0.172924D+00
      3  -0.240237D+00  0.449924D+00  0.449924D+00  0.000000D+00  0.000000D+00
      4   0.000000D+00  0.452080D+00 -0.452080D+00  0.000000D+00 -0.452080D+00
      5  -0.613548D+00 -0.261008D+00 -0.261008D+00 -0.522017D+00  0.261008D+00
      6   0.480473D+00 -0.449924D+00 -0.449924D+00  0.449924D+00  0.449924D+00
      7  -0.285733D+00 -0.299513D+00  0.299513D+00  0.000000D+00  0.152567D+00
      8   0.306774D+00  0.172924D+00  0.172924D+00  0.176169D+00 -0.880846D-01
      9  -0.240237D+00  0.000000D+00  0.000000D+00 -0.449924D+00 -0.449924D+00
     10   0.000000D+00  0.000000D+00  0.000000D+00  0.000000D+00  0.000000D+00
     11   0.000000D+00  0.000000D+00  0.000000D+00  0.000000D+00  0.000000D+00
     12   0.000000D+00  0.000000D+00  0.000000D+00  0.000000D+00  0.000000D+00
                16            17            18            19            20 
      1  -0.299513D+00  0.408541D+00 -0.408541D+00 -0.285733D+00 -0.518904D+00
      2  -0.172924D+00 -0.940654D-01 -0.940654D-01 -0.306774D+00  0.000000D+00
      3   0.000000D+00  0.240237D+00  0.240237D+00  0.240237D+00  0.000000D+00
      4   0.452080D+00 -0.531348D+00  0.531348D+00  0.000000D+00  0.518904D+00
      5   0.261008D+00 -0.306774D+00 -0.306774D+00  0.613548D+00  0.000000D+00
      6   0.449924D+00 -0.480473D+00 -0.480473D+00 -0.480473D+00  0.000000D+00
      7  -0.152567D+00  0.122807D+00 -0.122807D+00  0.285733D+00  0.518904D+00
      8  -0.880846D-01  0.400839D+00  0.400839D+00 -0.306774D+00  0.000000D+00
      9  -0.449924D+00  0.240237D+00  0.240237D+00  0.240237D+00  0.000000D+00
     10   0.000000D+00  0.000000D+00  0.000000D+00  0.000000D+00 -0.518904D+00
     11   0.000000D+00  0.000000D+00  0.000000D+00  0.000000D+00  0.000000D+00
     12   0.000000D+00  0.000000D+00  0.000000D+00  0.000000D+00  0.000000D+00
                21            22            23            24            25 
      1  -0.518904D+00 -0.518904D+00  0.259452D+00  0.259452D+00  0.259452D+00
      2   0.000000D+00  0.000000D+00  0.449384D+00  0.449384D+00  0.449384D+00
      3   0.000000D+00  0.000000D+00  0.000000D+00  0.000000D+00  0.000000D+00
      4   0.722030D+00  0.722030D+00 -0.462578D+00 -0.259452D+00 -0.259452D+00
      5   0.117275D+00 -0.117275D+00 -0.566659D+00 -0.449384D+00 -0.683934D+00
      6   0.000000D+00  0.000000D+00  0.000000D+00  0.000000D+00  0.000000D+00
      7  -0.462578D+00 -0.462578D+00  0.722030D+00 -0.259452D+00 -0.259452D+00
      8  -0.566659D+00  0.566659D+00  0.117275D+00 -0.449384D+00  0.683934D+00
      9   0.000000D+00  0.000000D+00  0.000000D+00  0.000000D+00  0.000000D+00
     10   0.259452D+00  0.259452D+00 -0.518904D+00  0.259452D+00  0.259452D+00
     11   0.449384D+00 -0.449384D+00  0.000000D+00  0.449384D+00 -0.449384D+00
     12   0.000000D+00  0.000000D+00  0.000000D+00  0.000000D+00  0.000000D+00
                26            27            28 
      1   0.259452D+00  0.259452D+00  0.259452D+00
      2  -0.449384D+00 -0.449384D+00 -0.449384D+00
      3   0.000000D+00  0.000000D+00  0.000000D+00
      4  -0.462578D+00 -0.259452D+00 -0.259452D+00
      5   0.566659D+00  0.683934D+00  0.449384D+00
      6   0.000000D+00  0.000000D+00  0.000000D+00
      7   0.722030D+00 -0.259452D+00 -0.259452D+00
      8  -0.117275D+00 -0.683934D+00  0.449384D+00
      9   0.000000D+00  0.000000D+00  0.000000D+00
     10  -0.518904D+00  0.259452D+00  0.259452D+00
     11   0.000000D+00  0.449384D+00 -0.449384D+00
     12   0.000000D+00  0.000000D+00  0.000000D+00
 Iteration  1 RMS(Cart)=  0.00013815 RMS(Int)=  0.00000000
 Iteration  2 RMS(Cart)=  0.00000000 RMS(Int)=  0.00000000
 Input Coordinates in SymCor: 
                 1             2             3             4             5 
      1   0.000000D+00  0.000000D+00  0.166878D+01 -0.166878D+01  0.000000D+00
      2   0.000000D+00  0.192694D+01 -0.963471D+00 -0.963471D+00  0.000000D+00
      3   0.144560D+01  0.220009D+01  0.220009D+01  0.220009D+01 -0.144560D+01
                 6             7             8 
      1   0.000000D+00 -0.166878D+01  0.166878D+01
      2  -0.192694D+01  0.963471D+00  0.963471D+00
      3  -0.220009D+01 -0.220009D+01 -0.220009D+01
 Symmetrized Coordinates in SymCor: 
                 1             2             3             4             5 
      1   0.000000D+00  0.000000D+00  0.166878D+01 -0.166878D+01  0.000000D+00
      2   0.000000D+00  0.192694D+01 -0.963471D+00 -0.963471D+00  0.000000D+00
      3   0.144560D+01  0.220009D+01  0.220009D+01  0.220009D+01 -0.144560D+01
                 6             7             8 
      1   0.000000D+00 -0.166878D+01  0.166878D+01
      2  -0.192694D+01  0.963471D+00  0.963471D+00
      3  -0.220009D+01 -0.220009D+01 -0.220009D+01
 Final Coordinates in SymCor: 
                 1             2             3             4             5 
      1   0.000000D+00  0.000000D+00  0.166878D+01 -0.166878D+01  0.000000D+00
      2   0.000000D+00  0.192694D+01 -0.963471D+00 -0.963471D+00  0.000000D+00
      3   0.144560D+01  0.220009D+01  0.220009D+01  0.220009D+01 -0.144560D+01
                 6             7             8 
      1   0.000000D+00 -0.166878D+01  0.166878D+01
      2  -0.192694D+01  0.963471D+00  0.963471D+00
      3  -0.220009D+01 -0.220009D+01 -0.220009D+01
 ClnCor:  largest displacement from symmetrization is 1.44D-10 for atom     7.
 Variable       Old X    -DE/DX   Delta X   Delta X   Delta X     New X
                                 (Linear)    (Quad)   (Total)
    R1        2.06960  -0.00008   0.00000  -0.00022  -0.00022   2.06938
    R2        2.06960  -0.00008   0.00000  -0.00022  -0.00022   2.06938
    R3        2.06960  -0.00008   0.00000  -0.00022  -0.00022   2.06938
    R4        2.89145  -0.00008   0.00000  -0.00024  -0.00024   2.89121
    R5        2.06960  -0.00008   0.00000  -0.00022  -0.00022   2.06938
    R6        2.06960  -0.00008   0.00000  -0.00022  -0.00022   2.06938
    R7        2.06960  -0.00008   0.00000  -0.00022  -0.00022   2.06938
    A1        1.87612   0.00000   0.00000   0.00001   0.00001   1.87613
    A2        1.87612   0.00000   0.00000   0.00001   0.00001   1.87613
    A3        1.94400  -0.00000   0.00000  -0.00001  -0.00001   1.94399
    A4        1.87612   0.00000   0.00000   0.00001   0.00001   1.87613
    A5        1.94400  -0.00000   0.00000  -0.00001  -0.00001   1.94399
    A6        1.94400  -0.00000   0.00000  -0.00001  -0.00001   1.94399
    A7        1.94400  -0.00000   0.00000  -0.00001  -0.00001   1.94399
    A8        1.94400  -0.00000   0.00000  -0.00001  -0.00001   1.94399
    A9        1.94400  -0.00000   0.00000  -0.00001  -0.00001   1.94399
   A10        1.87612   0.00000   0.00000   0.00001   0.00001   1.87613
   A11        1.87612   0.00000   0.00000   0.00001   0.00001   1.87613
   A12        1.87612   0.00000   0.00000   0.00001   0.00001   1.87613
    D1        3.14159  -0.00000   0.00000  -0.00000   0.00000   3.14159
    D2       -1.04720  -0.00000   0.00000  -0.00000   0.00000  -1.04720
    D3        1.04720  -0.00000   0.00000   0.00000  -0.00000   1.04720
    D4        1.04720  -0.00000   0.00000   0.00000   0.00000   1.04720
    D5        3.14159   0.00000   0.00000  -0.00000   0.00000   3.14159
    D6       -1.04720   0.00000   0.00000   0.00000  -0.00000  -1.04720
    D7       -1.04720  -0.00000   0.00000  -0.00000   0.00000  -1.04720
    D8        1.04720   0.00000   0.00000  -0.00000   0.00000   1.04720
    D9        3.14159   0.00000   0.00000  -0.00000   0.00000   3.14159
         Item               Value     Threshold  Converged?
 Maximum Force            0.000077     0.000450     YES
 RMS     Force            0.000038     0.000300     YES
 Maximum Displacement     0.000213     0.001800     YES
 RMS     Displacement     0.000138     0.001200     YES
 Predicted change in Energy=-5.907362D-08
 Optimization completed.
    -- Stationary point found.
                           ----------------------------
                           !   Optimized Parameters   !
                           ! (Angstroms and Degrees)  !
 --------------------------                            --------------------------
 ! Name  Definition              Value          Derivative Info.                !
 --------------------------------------------------------------------------------
 ! R1    R(1,2)                  1.0952         -DE/DX =   -0.0001              !
 ! R2    R(1,3)                  1.0952         -DE/DX =   -0.0001              !
 ! R3    R(1,4)                  1.0952         -DE/DX =   -0.0001              !
 ! R4    R(1,5)                  1.5301         -DE/DX =   -0.0001              !
 ! R5    R(5,6)                  1.0952         -DE/DX =   -0.0001              !
 ! R6    R(5,7)                  1.0952         -DE/DX =   -0.0001              !
 ! R7    R(5,8)                  1.0952         -DE/DX =   -0.0001              !
 ! A1    A(2,1,3)              107.4936         -DE/DX =    0.0                 !
 ! A2    A(2,1,4)              107.4936         -DE/DX =    0.0                 !
 ! A3    A(2,1,5)              111.383          -DE/DX =    0.0                 !
 ! A4    A(3,1,4)              107.4936         -DE/DX =    0.0                 !
 ! A5    A(3,1,5)              111.383          -DE/DX =    0.0                 !
 ! A6    A(4,1,5)              111.383          -DE/DX =    0.0                 !
 ! A7    A(1,5,6)              111.383          -DE/DX =    0.0                 !
 ! A8    A(1,5,7)              111.383          -DE/DX =    0.0                 !
 ! A9    A(1,5,8)              111.383          -DE/DX =    0.0                 !
 ! A10   A(6,5,7)              107.4936         -DE/DX =    0.0                 !
 ! A11   A(6,5,8)              107.4936         -DE/DX =    0.0                 !
 ! A12   A(7,5,8)              107.4936         -DE/DX =    0.0                 !
 ! D1    D(2,1,5,6)            180.0            -DE/DX =    0.0                 !
 ! D2    D(2,1,5,7)            -60.0            -DE/DX =    0.0                 !
 ! D3    D(2,1,5,8)             60.0            -DE/DX =    0.0                 !
 ! D4    D(3,1,5,6)             60.0            -DE/DX =    0.0                 !
 ! D5    D(3,1,5,7)            180.0            -DE/DX =    0.0                 !
 ! D6    D(3,1,5,8)            -60.0            -DE/DX =    0.0                 !
 ! D7    D(4,1,5,6)            -60.0            -DE/DX =    0.0                 !
 ! D8    D(4,1,5,7)             60.0            -DE/DX =    0.0                 !
 ! D9    D(4,1,5,8)            180.0            -DE/DX =    0.0                 !
 --------------------------------------------------------------------------------
 GradGradGradGradGradGradGradGradGradGradGradGradGradGradGradGradGradGrad

 Leave Link  103 at Sat Aug 10 16:32:51 2019, MaxMem=  4294967296 cpu:               0.3 elap:               0.0
 Dipole is zero, so no output in dipole orientation.

 ----------------------------------------------------------------------

 Electric dipole moment (input orientation):
 (Debye = 10**-18 statcoulomb cm , SI units = C m)
                  (au)            (Debye)         (10**-30 SI)
   Tot        0.000000D+00      0.000000D+00      0.000000D+00
   x          0.000000D+00      0.000000D+00      0.000000D+00
   y          0.000000D+00      0.000000D+00      0.000000D+00
   z          0.000000D+00      0.000000D+00      0.000000D+00

 Dipole polarizability, Alpha (input orientation).
 (esu units = cm**3 , SI units = C**2 m**2 J**-1)
 Alpha(0;0):
               (au)            (10**-24 esu)      (10**-40 SI)
   iso        0.233797D+02      0.346452D+01      0.385479D+01
   aniso      0.167490D+01      0.248195D+00      0.276154D+00
   xx         0.228215D+02      0.338179D+01      0.376275D+01
   yx         0.000000D+00      0.000000D+00      0.000000D+00
   yy         0.228213D+02      0.338177D+01      0.376273D+01
   zx         0.000000D+00      0.000000D+00      0.000000D+00
   zy        -0.705837D-04     -0.104594D-04     -0.116377D-04
   zz         0.244963D+02      0.362998D+01      0.403890D+01

 ----------------------------------------------------------------------

 Test job not archived.
 1\1\NSC-N973\Freq\RB3LYP\6-31G(d,p)\C2H6\X_KJEJO\10-Aug-2019\0\\# freq
 (intmodes) iop(1/33=3) b3lyp/6-31g(d,p) geom=connectivity iop(7/75=-1)
 \\name\\0,1\C,0.,0.,0.765044\H,0.0000000126,1.019798,1.164349\H,0.8831
 709684,-0.5098990109,1.164349\H,-0.883170981,-0.5098989891,1.164349\C,
 0.,0.,-0.765044\H,-0.0000000126,-1.019798,-1.164349\H,-0.8831709684,0.
 5098990109,-1.164349\H,0.883170981,0.5098989891,-1.164349\\Version=ES6
 4L-G16RevB.01\State=1-A1G\HF=-79.8387416\RMSD=4.814e-10\RMSF=3.826e-05
 \ZeroPoint=0.0749314\Thermal=0.0784049\Dipole=0.,0.,0.\DipoleDeriv=0.1
 153439,0.,0.,0.,0.1153408,-0.0000013,0.,0.000001,0.0873509,0.0608965,0
 .,0.,0.,-0.1377903,-0.0943282,0.,-0.0694653,-0.0291167,-0.0881194,0.08
 60339,-0.0816923,0.0860344,0.0112248,0.0471645,-0.0601591,0.0347324,-0
 .0291169,-0.0881194,-0.0860339,0.0816923,-0.0860344,0.0112248,0.047164
 5,0.0601591,0.0347324,-0.0291169,0.1153439,0.,0.,0.,0.1153408,-0.00000
 13,0.,0.000001,0.0873509,0.0608965,0.,0.,0.,-0.1377903,-0.0943282,0.,-
 0.0694653,-0.0291167,-0.0881194,0.0860339,-0.0816923,0.0860344,0.01122
 48,0.0471645,-0.0601591,0.0347324,-0.0291169,-0.0881194,-0.0860339,0.0
 816923,-0.0860344,0.0112248,0.0471645,0.0601591,0.0347324,-0.0291169\P
 olar=22.8214793,0.,22.8213411,0.,-0.0000706,24.4963099\Quadrupole=0.11
 19489,0.1119489,-0.2238978,0.,0.,0.\PG=D03D [C3(C1.C1),3SGD(H2)]\NImag
 =0\\0.57138876,0.,0.57138902,0.,-0.00000012,0.47751322,-0.04949143,0.,
 0.,0.04742639,0.,-0.27986991,-0.08626746,0.,0.30176008,0.,-0.08546676,
 -0.07966314,0.,0.09487024,0.08861258,-0.22227526,0.09975674,-0.0747099
 2,0.00077411,-0.00083609,0.00123555,0.23817666,0.09975679,-0.10708609,
 0.04313381,0.02583409,-0.01365849,0.01124089,-0.11012972,0.11100981,-0
 .07401634,0.04273338,-0.07966323,0.01035267,-0.00455043,0.00385072,0.0
 8216003,-0.04743512,0.08861258,-0.22227527,-0.09975673,0.07470992,0.00
 077411,0.00083609,-0.00123555,-0.02087479,-0.01333509,0.00911712,0.238
 17666,-0.09975679,-0.10708609,0.04313381,-0.02583409,-0.01365849,0.011
 24089,0.01333509,0.00799041,-0.00669046,0.11012972,0.11100981,0.074016
 34,0.04273338,-0.07966323,-0.01035267,-0.00455043,0.00385072,-0.009117
 12,-0.00669046,0.00385072,-0.08216003,-0.04743512,0.08861258,-0.080352
 39,0.,0.,-0.00059901,0.,0.,0.00180225,-0.00138637,-0.02866256,0.001802
 25,0.00138637,0.02866256,0.57138876,0.,-0.08035217,0.00000021,0.,0.002
 60264,-0.03309674,-0.00138635,0.00020137,0.01654835,0.00138635,0.00020
 137,0.01654835,0.,0.57138902,0.,0.00000021,-0.20114639,0.,0.00071709,-
 0.01245916,0.00062110,-0.00035864,-0.01245905,-0.00062110,-0.00035864,
 -0.01245905,0.,-0.00000012,0.47751322,-0.00059901,0.,0.,0.00099891,0.,
 0.,0.00005848,-0.00053506,-0.00000925,0.00005848,0.00053506,0.00000925
 ,-0.04949143,0.,0.,0.04742639,0.,0.00260264,0.00071709,0.,0.00176295,0
 .00074530,-0.00028263,0.00053058,-0.00048214,0.00028263,0.00053058,-0.
 00048214,0.,-0.27986991,-0.08626746,0.,0.30176008,0.,-0.03309674,-0.01
 245916,0.,0.00074530,-0.00712532,-0.00042217,0.00023306,0.00146680,0.0
 0042217,0.00023306,0.00146680,0.,-0.08546676,-0.07966314,0.,0.09487024
 ,0.08861258,0.00180225,-0.00138635,0.00062110,0.00005848,-0.00028263,-
 0.00042217,0.00157194,-0.00033084,0.00064545,0.00076663,-0.00012621,-0
 .00041292,-0.22227526,0.09975674,-0.07470992,0.00077411,-0.00083609,0.
 00123555,0.23817666,-0.00138637,0.00020137,-0.00035864,-0.00053506,0.0
 0053058,0.00023306,-0.00033084,0.00118992,-0.00037265,0.00012621,-0.00
 017757,0.00024908,0.09975679,-0.10708609,0.04313381,0.02583409,-0.0136
 5849,0.01124089,-0.11012972,0.11100981,-0.02866256,0.01654835,-0.01245
 905,-0.00000925,-0.00048214,0.00146680,0.00064545,-0.00037265,-0.00712
 532,0.00041292,0.00024908,0.00146680,-0.07401634,0.04273338,-0.0796632
 3,0.01035267,-0.00455043,0.00385072,0.08216003,-0.04743512,0.08861258,
 0.00180225,0.00138635,-0.00062110,0.00005848,0.00028263,0.00042217,0.0
 0076663,0.00012621,0.00041292,0.00157194,0.00033084,-0.00064545,-0.222
 27527,-0.09975673,0.07470992,0.00077411,0.00083609,-0.00123555,-0.0208
 7479,-0.01333509,0.00911712,0.23817666,0.00138637,0.00020137,-0.000358
 64,0.00053506,0.00053058,0.00023306,-0.00012621,-0.00017757,0.00024908
 ,0.00033084,0.00118992,-0.00037265,-0.09975679,-0.10708609,0.04313381,
 -0.02583409,-0.01365849,0.01124089,0.01333509,0.00799041,-0.00669046,0
 .11012972,0.11100981,0.02866256,0.01654835,-0.01245905,0.00000925,-0.0
 0048214,0.00146680,-0.00041292,0.00024908,0.00146680,-0.00064545,-0.00
 037265,-0.00712532,0.07401634,0.04273338,-0.07966323,-0.01035267,-0.00
 455043,0.00385072,-0.00911712,-0.00669046,0.00385072,-0.08216003,-0.04
 743512,0.08861258\\0.,0.,-0.00001390,0.,0.00006977,0.00003041,0.000060
 42,-0.00003488,0.00003041,-0.00006042,-0.00003488,0.00003041,0.,0.,0.0
 0001390,0.,-0.00006977,-0.00003041,-0.00006042,0.00003488,-0.00003041,
 0.00006042,0.00003488,-0.00003041\\\@


 IT'S WHAT A FELLER THINKS HE KNOWS THAT HURTS HIM...
                    ------
           KIN HUBBARD
 Job cpu time:       0 days  0 hours  0 minutes 53.3 seconds.
 Elapsed time:       0 days  0 hours  0 minutes  4.1 seconds.
 File lengths (MBytes):  RWF=      6 Int=      0 D2E=      0 Chk=      8 Scr=      1
 Normal termination of Gaussian 16 at Sat Aug 10 16:32:51 2019.
