 Entering Gaussian System, Link 0=/software/sse/easybuild/prefix/software/Gaussian/16.B.01-avx2-nsc1-bdist/g16/g16.orig
 Input=freq-hp.wrap
 Output=freq-hp.log
 Initial command:
 /software/sse/easybuild/prefix/software/Gaussian/16.B.01-avx2-nsc1-bdist/g16/l1.exe "/scratch/local/Gau-414142.inp" -scrdir="/scratch/local/"
 Default is to use a total of  16 processors:
                               16 via shared-memory
                                1 via Linda
 Entering Link 1 = /software/sse/easybuild/prefix/software/Gaussian/16.B.01-avx2-nsc1-bdist/g16/l1.exe PID=    414147.
  
 Copyright (c) 1988-2017, Gaussian, Inc.  All Rights Reserved.
  
 This is part of the Gaussian(R) 16 program.  It is based on
 the Gaussian(R) 09 system (copyright 2009, Gaussian, Inc.),
 the Gaussian(R) 03 system (copyright 2003, Gaussian, Inc.),
 the Gaussian(R) 98 system (copyright 1998, Gaussian, Inc.),
 the Gaussian(R) 94 system (copyright 1995, Gaussian, Inc.),
 the Gaussian 92(TM) system (copyright 1992, Gaussian, Inc.),
 the Gaussian 90(TM) system (copyright 1990, Gaussian, Inc.),
 the Gaussian 88(TM) system (copyright 1988, Gaussian, Inc.),
 the Gaussian 86(TM) system (copyright 1986, Carnegie Mellon
 University), and the Gaussian 82(TM) system (copyright 1983,
 Carnegie Mellon University). Gaussian is a federally registered
 trademark of Gaussian, Inc.
  
 This software contains proprietary and confidential information,
 including trade secrets, belonging to Gaussian, Inc.
  
 This software is provided under written license and may be
 used, copied, transmitted, or stored only in accord with that
 written license.
  
 The following legend is applicable only to US Government
 contracts under FAR:
  
                    RESTRICTED RIGHTS LEGEND
  
 Use, reproduction and disclosure by the US Government is
 subject to restrictions as set forth in subparagraphs (a)
 and (c) of the Commercial Computer Software - Restricted
 Rights clause in FAR 52.227-19.
  
 Gaussian, Inc.
 340 Quinnipiac St., Bldg. 40, Wallingford CT 06492
  
  
 ---------------------------------------------------------------
 Warning -- This program may not be used in any manner that
 competes with the business of Gaussian, Inc. or will provide
 assistance to any competitor of Gaussian, Inc.  The licensee
 of this program is prohibited from giving any competitor of
 Gaussian, Inc. access to this program.  By using this program,
 the user acknowledges that Gaussian, Inc. is engaged in the
 business of creating and licensing software in the field of
 computational chemistry and represents and warrants to the
 licensee that it is not a competitor of Gaussian, Inc. and that
 it will not use this program in any manner prohibited above.
 ---------------------------------------------------------------
  

 Cite this work as:
 Gaussian 16, Revision B.01,
 M. J. Frisch, G. W. Trucks, H. B. Schlegel, G. E. Scuseria, 
 M. A. Robb, J. R. Cheeseman, G. Scalmani, V. Barone, 
 G. A. Petersson, H. Nakatsuji, X. Li, M. Caricato, A. V. Marenich, 
 J. Bloino, B. G. Janesko, R. Gomperts, B. Mennucci, H. P. Hratchian, 
 J. V. Ortiz, A. F. Izmaylov, J. L. Sonnenberg, D. Williams-Young, 
 F. Ding, F. Lipparini, F. Egidi, J. Goings, B. Peng, A. Petrone, 
 T. Henderson, D. Ranasinghe, V. G. Zakrzewski, J. Gao, N. Rega, 
 G. Zheng, W. Liang, M. Hada, M. Ehara, K. Toyota, R. Fukuda, 
 J. Hasegawa, M. Ishida, T. Nakajima, Y. Honda, O. Kitao, H. Nakai, 
 T. Vreven, K. Throssell, J. A. Montgomery, Jr., J. E. Peralta, 
 F. Ogliaro, M. J. Bearpark, J. J. Heyd, E. N. Brothers, K. N. Kudin, 
 V. N. Staroverov, T. A. Keith, R. Kobayashi, J. Normand, 
 K. Raghavachari, A. P. Rendell, J. C. Burant, S. S. Iyengar, 
 J. Tomasi, M. Cossi, J. M. Millam, M. Klene, C. Adamo, R. Cammi, 
 J. W. Ochterski, R. L. Martin, K. Morokuma, O. Farkas, 
 J. B. Foresman, and D. J. Fox, Gaussian, Inc., Wallingford CT, 2016.
 
 ******************************************
 Gaussian 16:  ES64L-G16RevB.01 20-Dec-2017
                10-Aug-2019 
 ******************************************
 %chk=freq.chk
 ----------------------------------------------------------------------
 # freq(hpmodes,intmodes) iop(1/33=3) b3lyp/6-31g(d,p) geom=connectivit
 y iop(7/75=-1)
 ----------------------------------------------------------------------
 1/10=4,18=20,30=1,33=3,38=1,57=2/1,3;
 2/9=110,12=2,17=6,18=5,40=1/2;
 3/5=1,6=6,7=101,11=2,25=1,30=1,71=2,74=-5,140=1/1,2,3;
 4//1;
 5/5=2,38=5,98=1/2;
 8/6=4,10=90,11=11/1;
 11/6=1,8=1,9=11,15=111,16=1/1,2,10;
 10/6=1/2;
 6/7=2,8=2,9=2,10=2,28=1/1;
 7/8=31,10=1,25=1,75=-1/1,2,3,16;
 1/10=4,18=20,30=1,33=3/3;
 99//99;
 ONIOM results not found on unit 2.
 ----
 name
 ----
 TstMul:  ICh=     0
 TstMul:  Mul=     1
 TstMul:  ICh=     0
 TstMul:  Mul=     1
 Symbolic Z-matrix:
 Charge =  0 Multiplicity = 1
 C                     0.60184   1.75071   0. 
 H                    -0.32544   2.31814   0. 
 H                     1.52395   2.32233   0. 
 C                     0.60184   0.41072   0. 
 H                     1.55116  -0.12483   0. 
 C                    -0.60184  -0.41072   0. 
 H                    -1.55116   0.12483   0. 
 C                    -0.60184  -1.75071   0. 
 H                     0.32544  -2.31814   0. 
 H                    -1.52395  -2.32233   0. 
 
 RdStrC is calling ZToCFu for IStruc=1 NZ=    10.
                                ZToCFu                                
 ---------------------------------------------------------------------
 Center     Atomic      Atomic             Coordinates (Angstroms)
 Number     Number       Type             X           Y           Z
 ---------------------------------------------------------------------
      1          6           0        0.601842    1.750706    0.000000
      2          1           0       -0.325442    2.318140    0.000000
      3          1           0        1.523949    2.322332    0.000000
      4          6           0        0.601842    0.410718    0.000000
      5          1           0        1.551156   -0.124834    0.000000
      6          6           0       -0.601842   -0.410718    0.000000
      7          1           0       -1.551156    0.124834    0.000000
      8          6           0       -0.601842   -1.750706    0.000000
      9          1           0        0.325442   -2.318140    0.000000
     10          1           0       -1.523949   -2.322332    0.000000
 ---------------------------------------------------------------------
 Connectivity in DoCon:
 I=     1 IAn=  6 IBond, RBType=     2  1.00     3  1.00     4  2.00
 I=     2 IAn=  1 IBond, RBType=     1  1.00
 I=     3 IAn=  1 IBond, RBType=     1  1.00
 I=     4 IAn=  6 IBond, RBType=     1  2.00     5  1.00     6  1.00
 I=     5 IAn=  1 IBond, RBType=     4  1.00
 I=     6 IAn=  6 IBond, RBType=     4  1.00     7  1.00     8  2.00
 I=     7 IAn=  1 IBond, RBType=     6  1.00
 I=     8 IAn=  6 IBond, RBType=     6  2.00     9  1.00    10  1.00
 I=     9 IAn=  1 IBond, RBType=     8  1.00
 I=    10 IAn=  1 IBond, RBType=     8  1.00
 After GenITR:
 ITRead=  0  0  0  0  0  0  0  0  0  0
 MicOpt= -1 -1 -1 -1 -1 -1 -1 -1 -1 -1
 List IsCon N=     10 M=      2:
 I=      1 Vals=      2      1 |      3      1 |      4      2 |
 I=      2 Vals=      1      1 |
 I=      3 Vals=      1      1 |
 I=      4 Vals=      1      2 |      5      1 |      6      1 |
 I=      5 Vals=      4      1 |
 I=      6 Vals=      4      1 |      7      1 |      8      2 |
 I=      7 Vals=      6      1 |
 I=      8 Vals=      6      2 |      9      1 |     10      1 |
 I=      9 Vals=      8      1 |
 I=     10 Vals=      8      1 |
 Coordinate R1 contains atom 1 which is already in QM block.
 Coordinate R1 contains atom 2 which is already in QM block.
 Coordinate R2 contains atom 1 which is already in QM block.
 Coordinate R2 contains atom 3 which is already in QM block.
 Coordinate R3 contains atom 1 which is already in QM block.
 Coordinate R3 contains atom 4 which is already in QM block.
 Coordinate R4 contains atom 4 which is already in QM block.
 Coordinate R4 contains atom 5 which is already in QM block.
 Coordinate R5 contains atom 4 which is already in QM block.
 Coordinate R5 contains atom 6 which is already in QM block.
 Coordinate R6 contains atom 6 which is already in QM block.
 Coordinate R6 contains atom 7 which is already in QM block.
 Coordinate R7 contains atom 6 which is already in QM block.
 Coordinate R7 contains atom 8 which is already in QM block.
 Coordinate R8 contains atom 8 which is already in QM block.
 Coordinate R8 contains atom 9 which is already in QM block.
 Coordinate R9 contains atom 8 which is already in QM block.
 Coordinate R9 contains atom 10 which is already in QM block.
 Coordinate A1 contains atom 2 which is already in QM block.
 Coordinate A1 contains atom 1 which is already in QM block.
 Coordinate A1 contains atom 1 which is already in QM block.
 Coordinate A2 contains atom 2 which is already in QM block.
 Coordinate A2 contains atom 1 which is already in QM block.
 Coordinate A2 contains atom 1 which is already in QM block.
 Coordinate A3 contains atom 3 which is already in QM block.
 Coordinate A3 contains atom 1 which is already in QM block.
 Coordinate A3 contains atom 1 which is already in QM block.
 Coordinate A4 contains atom 1 which is already in QM block.
 Coordinate A4 contains atom 4 which is already in QM block.
 Coordinate A4 contains atom 4 which is already in QM block.
 Coordinate A5 contains atom 1 which is already in QM block.
 Coordinate A5 contains atom 4 which is already in QM block.
 Coordinate A5 contains atom 4 which is already in QM block.
 Coordinate A6 contains atom 5 which is already in QM block.
 Coordinate A6 contains atom 4 which is already in QM block.
 Coordinate A6 contains atom 4 which is already in QM block.
 Coordinate A7 contains atom 4 which is already in QM block.
 Coordinate A7 contains atom 6 which is already in QM block.
 Coordinate A7 contains atom 6 which is already in QM block.
 Coordinate A8 contains atom 4 which is already in QM block.
 Coordinate A8 contains atom 6 which is already in QM block.
 Coordinate A8 contains atom 6 which is already in QM block.
 Coordinate A9 contains atom 7 which is already in QM block.
 Coordinate A9 contains atom 6 which is already in QM block.
 Coordinate A9 contains atom 6 which is already in QM block.
 Coordinate A10 contains atom 6 which is already in QM block.
 Coordinate A10 contains atom 8 which is already in QM block.
 Coordinate A10 contains atom 8 which is already in QM block.
 Coordinate A11 contains atom 6 which is already in QM block.
 Coordinate A11 contains atom 8 which is already in QM block.
 Coordinate A11 contains atom 8 which is already in QM block.
 Coordinate A12 contains atom 9 which is already in QM block.
 Coordinate A12 contains atom 8 which is already in QM block.
 Coordinate A12 contains atom 8 which is already in QM block.
 Coordinate D1 contains atom 2 which is already in QM block.
 Coordinate D1 contains atom 1 which is already in QM block.
 Coordinate D1 contains atom 4 which is already in QM block.
 Coordinate D1 contains atom 5 which is already in QM block.
 Coordinate D2 contains atom 2 which is already in QM block.
 Coordinate D2 contains atom 1 which is already in QM block.
 Coordinate D2 contains atom 4 which is already in QM block.
 Coordinate D2 contains atom 6 which is already in QM block.
 Coordinate D3 contains atom 3 which is already in QM block.
 Coordinate D3 contains atom 1 which is already in QM block.
 Coordinate D3 contains atom 4 which is already in QM block.
 Coordinate D3 contains atom 5 which is already in QM block.
 Coordinate D4 contains atom 3 which is already in QM block.
 Coordinate D4 contains atom 1 which is already in QM block.
 Coordinate D4 contains atom 4 which is already in QM block.
 Coordinate D4 contains atom 6 which is already in QM block.
 Coordinate D5 contains atom 1 which is already in QM block.
 Coordinate D5 contains atom 4 which is already in QM block.
 Coordinate D5 contains atom 6 which is already in QM block.
 Coordinate D5 contains atom 7 which is already in QM block.
 Coordinate D6 contains atom 1 which is already in QM block.
 Coordinate D6 contains atom 4 which is already in QM block.
 Coordinate D6 contains atom 6 which is already in QM block.
 Coordinate D6 contains atom 8 which is already in QM block.
 Coordinate D7 contains atom 5 which is already in QM block.
 Coordinate D7 contains atom 4 which is already in QM block.
 Coordinate D7 contains atom 6 which is already in QM block.
 Coordinate D7 contains atom 7 which is already in QM block.
 Coordinate D8 contains atom 5 which is already in QM block.
 Coordinate D8 contains atom 4 which is already in QM block.
 Coordinate D8 contains atom 6 which is already in QM block.
 Coordinate D8 contains atom 8 which is already in QM block.
 Coordinate D9 contains atom 4 which is already in QM block.
 Coordinate D9 contains atom 6 which is already in QM block.
 Coordinate D9 contains atom 8 which is already in QM block.
 Coordinate D9 contains atom 9 which is already in QM block.
 Coordinate D10 contains atom 4 which is already in QM block.
 Coordinate D10 contains atom 6 which is already in QM block.
 Coordinate D10 contains atom 8 which is already in QM block.
 Coordinate D10 contains atom 10 which is already in QM block.
 Coordinate D11 contains atom 7 which is already in QM block.
 Coordinate D11 contains atom 6 which is already in QM block.
 Coordinate D11 contains atom 8 which is already in QM block.
 Coordinate D11 contains atom 9 which is already in QM block.
 Coordinate D12 contains atom 7 which is already in QM block.
 Coordinate D12 contains atom 6 which is already in QM block.
 Coordinate D12 contains atom 8 which is already in QM block.
 Coordinate D12 contains atom 10 which is already in QM block.
 Saved connectivity
 I=     1 IAn=  6 IBond, RBType=     2  1.00     3  1.00     4  2.00
 I=     2 IAn=  1 IBond, RBType=     1  1.00
 I=     3 IAn=  1 IBond, RBType=     1  1.00
 I=     4 IAn=  6 IBond, RBType=     1  2.00     5  1.00     6  1.00
 I=     5 IAn=  1 IBond, RBType=     4  1.00
 I=     6 IAn=  6 IBond, RBType=     4  1.00     7  1.00     8  2.00
 I=     7 IAn=  1 IBond, RBType=     6  1.00
 I=     8 IAn=  6 IBond, RBType=     6  2.00     9  1.00    10  1.00
 I=     9 IAn=  1 IBond, RBType=     8  1.00
 I=    10 IAn=  1 IBond, RBType=     8  1.00
 ITRead=  0  0  0  0  0  0  0  0  0  0
 MicOpt= -1 -1 -1 -1 -1 -1 -1 -1 -1 -1
 NAtoms=     10 NQM=       10 NQMF=       0 NMMI=      0 NMMIF=      0
                NMic=       0 NMicF=      0.
 No MM parameters found.
 Leave Link  101 at Sat Aug 10 16:33:26 2019, MaxMem=  4294967296 cpu:               5.8 elap:               0.4

 GradGradGradGradGradGradGradGradGradGradGradGradGradGradGradGradGradGrad
 Berny optimization.
 GetPCM: File not found, return IValue=0.
 Optmz: redundant internal coordinate code flag= 1
 Initialization pass.
                           ----------------------------
                           !    Initial Parameters    !
                           ! (Angstroms and Degrees)  !
 --------------------------                            --------------------------
 ! Name  Definition              Value          Derivative Info.                !
 --------------------------------------------------------------------------------
 ! R1    R(1,2)                  1.0871         calculate D2E/DX2 analytically  !
 ! R2    R(1,3)                  1.0849         calculate D2E/DX2 analytically  !
 ! R3    R(1,4)                  1.34           calculate D2E/DX2 analytically  !
 ! R4    R(4,5)                  1.09           calculate D2E/DX2 analytically  !
 ! R5    R(4,6)                  1.4573         calculate D2E/DX2 analytically  !
 ! R6    R(6,7)                  1.09           calculate D2E/DX2 analytically  !
 ! R7    R(6,8)                  1.34           calculate D2E/DX2 analytically  !
 ! R8    R(8,9)                  1.0871         calculate D2E/DX2 analytically  !
 ! R9    R(8,10)                 1.0849         calculate D2E/DX2 analytically  !
 ! A1    A(2,1,3)              116.7409         calculate D2E/DX2 analytically  !
 ! A2    A(2,1,4)              121.4638         calculate D2E/DX2 analytically  !
 ! A3    A(3,1,4)              121.7953         calculate D2E/DX2 analytically  !
 ! A4    A(1,4,5)              119.4294         calculate D2E/DX2 analytically  !
 ! A5    A(1,4,6)              124.311          calculate D2E/DX2 analytically  !
 ! A6    A(5,4,6)              116.2596         calculate D2E/DX2 analytically  !
 ! A7    A(4,6,7)              116.2596         calculate D2E/DX2 analytically  !
 ! A8    A(4,6,8)              124.311          calculate D2E/DX2 analytically  !
 ! A9    A(7,6,8)              119.4294         calculate D2E/DX2 analytically  !
 ! A10   A(6,8,9)              121.4638         calculate D2E/DX2 analytically  !
 ! A11   A(6,8,10)             121.7953         calculate D2E/DX2 analytically  !
 ! A12   A(9,8,10)             116.7409         calculate D2E/DX2 analytically  !
 ! D1    D(2,1,4,5)            180.0            calculate D2E/DX2 analytically  !
 ! D2    D(2,1,4,6)              0.0            calculate D2E/DX2 analytically  !
 ! D3    D(3,1,4,5)              0.0            calculate D2E/DX2 analytically  !
 ! D4    D(3,1,4,6)            180.0            calculate D2E/DX2 analytically  !
 ! D5    D(1,4,6,7)              0.0            calculate D2E/DX2 analytically  !
 ! D6    D(1,4,6,8)            180.0            calculate D2E/DX2 analytically  !
 ! D7    D(5,4,6,7)            180.0            calculate D2E/DX2 analytically  !
 ! D8    D(5,4,6,8)              0.0            calculate D2E/DX2 analytically  !
 ! D9    D(4,6,8,9)              0.0            calculate D2E/DX2 analytically  !
 ! D10   D(4,6,8,10)           180.0            calculate D2E/DX2 analytically  !
 ! D11   D(7,6,8,9)            180.0            calculate D2E/DX2 analytically  !
 ! D12   D(7,6,8,10)             0.0            calculate D2E/DX2 analytically  !
 --------------------------------------------------------------------------------
 Maximum allowed force set to 1.00D+20.
 Trust Radius=3.00D-01 FncErr=1.00D-07 GrdErr=1.00D-07 EigMax=2.50D+02 EigMin=1.00D-04
 Number of steps in this run=      2 maximum allowed number of steps=      2.
 GradGradGradGradGradGradGradGradGradGradGradGradGradGradGradGradGradGrad

 Leave Link  103 at Sat Aug 10 16:33:26 2019, MaxMem=  4294967296 cpu:               1.0 elap:               0.3
                          Input orientation:                          
 ---------------------------------------------------------------------
 Center     Atomic      Atomic             Coordinates (Angstroms)
 Number     Number       Type             X           Y           Z
 ---------------------------------------------------------------------
      1          6           0        0.601842    1.750706    0.000000
      2          1           0       -0.325442    2.318140    0.000000
      3          1           0        1.523949    2.322332    0.000000
      4          6           0        0.601842    0.410718    0.000000
      5          1           0        1.551156   -0.124834    0.000000
      6          6           0       -0.601842   -0.410718    0.000000
      7          1           0       -1.551156    0.124834    0.000000
      8          6           0       -0.601842   -1.750706    0.000000
      9          1           0        0.325442   -2.318140    0.000000
     10          1           0       -1.523949   -2.322332    0.000000
 ---------------------------------------------------------------------
                    Distance matrix (angstroms):
                    1          2          3          4          5
     1  C    0.000000
     2  H    1.087123   0.000000
     3  H    1.084914   1.849396   0.000000
     4  C    1.339988   2.120876   2.122392   0.000000
     5  H    2.102105   3.080542   2.447317   1.089960   0.000000
     6  C    2.473986   2.742820   3.462449   1.457262   2.171895
     7  H    2.697936   2.512562   3.779586   2.171895   3.112342
     8  C    3.702532   4.078223   4.594412   2.473986   2.697936
     9  H    4.078223   4.681746   4.792744   2.742820   2.512562
    10  H    4.594412   4.792744   5.555411   3.462449   3.779586
                    6          7          8          9         10
     6  C    0.000000
     7  H    1.089960   0.000000
     8  C    1.339988   2.102105   0.000000
     9  H    2.120876   3.080542   1.087123   0.000000
    10  H    2.122392   2.447317   1.084914   1.849396   0.000000
 Stoichiometry    C4H6
 Framework group  C2H[SGH(C4H6)]
 Deg. of freedom     9
 Full point group                 C2H     NOp   4
 Largest Abelian subgroup         C2H     NOp   4
 Largest concise Abelian subgroup C2      NOp   2
                         Standard orientation:                         
 ---------------------------------------------------------------------
 Center     Atomic      Atomic             Coordinates (Angstroms)
 Number     Number       Type             X           Y           Z
 ---------------------------------------------------------------------
      1          6           0        0.601842    1.750706    0.000000
      2          1           0       -0.325442    2.318140    0.000000
      3          1           0        1.523949    2.322332    0.000000
      4          6           0        0.601842    0.410718    0.000000
      5          1           0        1.551156   -0.124834    0.000000
      6          6           0       -0.601842   -0.410718    0.000000
      7          1           0       -1.551156    0.124834    0.000000
      8          6           0       -0.601842   -1.750706    0.000000
      9          1           0        0.325442   -2.318140    0.000000
     10          1           0       -1.523949   -2.322332    0.000000
 ---------------------------------------------------------------------
 Rotational constants (GHZ):          42.3394462           4.4123968           3.9959588
 Standard basis: 6-31G(d,p) (6D, 7F)
 There are    34 symmetry adapted cartesian basis functions of AG  symmetry.
 There are    11 symmetry adapted cartesian basis functions of BG  symmetry.
 There are    11 symmetry adapted cartesian basis functions of AU  symmetry.
 There are    34 symmetry adapted cartesian basis functions of BU  symmetry.
 There are    34 symmetry adapted basis functions of AG  symmetry.
 There are    11 symmetry adapted basis functions of BG  symmetry.
 There are    11 symmetry adapted basis functions of AU  symmetry.
 There are    34 symmetry adapted basis functions of BU  symmetry.
    90 basis functions,   154 primitive gaussians,    90 cartesian basis functions
    15 alpha electrons       15 beta electrons
       nuclear repulsion energy       103.5939672531 Hartrees.
 NAtoms=   10 NActive=   10 NUniq=    5 SFac= 4.00D+00 NAtFMM=   60 NAOKFM=F Big=F
 Integral buffers will be    131072 words long.
 Raffenetti 2 integral format.
 Two-electron integral symmetry is turned on.
 One-electron integrals computed using PRISM.
 NBasis=    90 RedAO= T EigKep=  3.43D-03  NBF=    34    11    11    34
 NBsUse=    90 1.00D-06 EigRej= -1.00D+00 NBFU=    34    11    11    34
 ExpMin= 1.61D-01 ExpMax= 3.05D+03 ExpMxC= 4.57D+02 IAcc=3 IRadAn=         5 AccDes= 0.00D+00
 Harris functional with IExCor=  402 and IRadAn=       5 diagonalized for initial guess.
 HarFok:  IExCor=  402 AccDes= 0.00D+00 IRadAn=         5 IDoV= 1 UseB2=F ITyADJ=14
 ICtDFT=  3500011 ScaDFX=  1.000000  1.000000  1.000000  1.000000
 FoFCou: FMM=F IPFlag=           0 FMFlag=      100000 FMFlg1=           0
         NFxFlg=           0 DoJE=T BraDBF=F KetDBF=T FulRan=T
         wScrn=  0.000000 ICntrl=       500 IOpCl=  0 I1Cent=   200000004 NGrid=           0
         NMat0=    1 NMatS0=      1 NMatT0=    0 NMatD0=    1 NMtDS0=    0 NMtDT0=    0
 Petite list used in FoFCou.
 Initial guess orbital symmetries:
       Occupied  (AG) (BU) (AG) (BU) (AG) (BU) (AG) (BU) (BU) (AG)
                 (AG) (BU) (AG) (AU) (BG)
       Virtual   (AU) (BG) (BU) (AG) (BU) (AG) (BU) (AG) (BU) (AG)
                 (BU) (BU) (AG) (AU) (BG) (AG) (BU) (AG) (BU) (BG)
                 (AU) (AG) (BU) (AG) (BU) (AG) (BU) (BU) (AG) (AG)
                 (BU) (AU) (BG) (AG) (BU) (AU) (BG) (AU) (AG) (AG)
                 (BU) (BU) (BG) (AG) (BU) (AG) (BU) (AU) (AG) (BG)
                 (BU) (AU) (BG) (AG) (BU) (AU) (BG) (BU) (AG) (BG)
                 (AU) (AG) (BU) (BU) (AG) (AG) (BU) (BU) (AG) (AG)
                 (BU) (AG) (BU) (AG) (BU)
 The electronic state of the initial guess is 1-AG.
 Keep R1 ints in memory in symmetry-blocked form, NReq=23025600.
 Requested convergence on RMS density matrix=1.00D-08 within 128 cycles.
 Requested convergence on MAX density matrix=1.00D-06.
 Requested convergence on             energy=1.00D-06.
 No special actions if energy rises.
 Integral accuracy reduced to 1.0D-05 until final iterations.
 Initial convergence to 1.0D-05 achieved.  Increase integral accuracy.
 SCF Done:  E(RB3LYP) =  -156.001662838     A.U. after   11 cycles
            NFock= 11  Conv=0.72D-08     -V/T= 2.0102
 DoSCS=F DFT=T ScalE2(SS,OS)=  1.000000  1.000000
 Range of M.O.s used for correlation:     1    90
 NBasis=    90 NAE=    15 NBE=    15 NFC=     0 NFV=     0
 NROrb=     90 NOA=    15 NOB=    15 NVA=    75 NVB=    75
 Symmetrizing basis deriv contribution to polar:
 IMax=3 JMax=2 DiffMx= 0.00D+00
 G2DrvN: will do    11 centers at a time, making    1 passes.
 Calling FoFCou, ICntrl=  3107 FMM=F I1Cent=   0 AccDes= 0.00D+00.
 End of G2Drv F.D. properties file   721 does not exist.
 End of G2Drv F.D. properties file   722 does not exist.
 End of G2Drv F.D. properties file   788 does not exist.
          IDoAtm=1111111111
          Differentiating once with respect to electric field.
                with respect to dipole field.
          Differentiating once with respect to nuclear coordinates.
 Keep R1 ints in memory in symmetry-blocked form, NReq=22979183.
          There are    18 degrees of freedom in the 1st order CPHF.  IDoFFX=4 NUNeed=    18.
     18 vectors produced by pass  0 Test12= 6.25D-15 5.56D-09 XBig12= 1.09D+02 8.63D+00.
 AX will form    18 AO Fock derivatives at one time.
     18 vectors produced by pass  1 Test12= 6.25D-15 5.56D-09 XBig12= 1.85D+01 1.29D+00.
     18 vectors produced by pass  2 Test12= 6.25D-15 5.56D-09 XBig12= 4.60D-01 1.38D-01.
     18 vectors produced by pass  3 Test12= 6.25D-15 5.56D-09 XBig12= 2.51D-03 1.12D-02.
     18 vectors produced by pass  4 Test12= 6.25D-15 5.56D-09 XBig12= 9.56D-06 6.14D-04.
     13 vectors produced by pass  5 Test12= 6.25D-15 5.56D-09 XBig12= 8.36D-09 2.24D-05.
      4 vectors produced by pass  6 Test12= 6.25D-15 5.56D-09 XBig12= 5.89D-12 5.23D-07.
      2 vectors produced by pass  7 Test12= 6.25D-15 5.56D-09 XBig12= 5.60D-15 1.46D-08.
 InvSVY:  IOpt=1 It=  1 EMax= 2.66D-15
 Solved reduced A of dimension   109 with    18 vectors.
 Isotropic polarizability for W=    0.000000       44.59 Bohr**3.
 End of Minotr F.D. properties file   721 does not exist.
 End of Minotr F.D. properties file   722 does not exist.
 End of Minotr F.D. properties file   788 does not exist.

 **********************************************************************

            Population analysis using the SCF Density.

 **********************************************************************

 Orbital symmetries:
       Occupied  (AG) (BU) (AG) (BU) (AG) (BU) (AG) (BU) (BU) (AG)
                 (AG) (BU) (AG) (AU) (BG)
       Virtual   (AU) (BG) (BU) (AG) (BU) (AG) (BU) (AG) (BU) (AG)
                 (BU) (BU) (AG) (AU) (BG) (AG) (BU) (BG) (BU) (AU)
                 (AG) (AG) (BU) (AG) (BU) (AG) (BU) (BU) (AG) (AG)
                 (BU) (AG) (AU) (BU) (BG) (AU) (BG) (AU) (AG) (AG)
                 (BU) (BG) (BU) (AG) (BU) (AG) (BU) (AU) (AG) (BG)
                 (BU) (AU) (BG) (AG) (BU) (AU) (BG) (BU) (BG) (AG)
                 (AU) (AG) (BU) (BU) (AG) (AG) (BU) (BU) (AG) (AG)
                 (BU) (AG) (BU) (AG) (BU)
 The electronic state is 1-AG.
 Alpha  occ. eigenvalues --  -10.19259 -10.19224 -10.18386 -10.18386  -0.80172
 Alpha  occ. eigenvalues --   -0.72988  -0.60265  -0.54952  -0.46327  -0.45856
 Alpha  occ. eigenvalues --   -0.39087  -0.38367  -0.34326  -0.32041  -0.22969
 Alpha virt. eigenvalues --   -0.02354   0.08397   0.11591   0.12567   0.13083
 Alpha virt. eigenvalues --    0.17538   0.19240   0.21225   0.32367   0.33570
 Alpha virt. eigenvalues --    0.39625   0.47033   0.51026   0.53001   0.57780
 Alpha virt. eigenvalues --    0.60540   0.62452   0.66160   0.67103   0.67146
 Alpha virt. eigenvalues --    0.69250   0.82114   0.83653   0.84306   0.86706
 Alpha virt. eigenvalues --    0.92188   0.93139   0.95594   1.05480   1.10239
 Alpha virt. eigenvalues --    1.12015   1.31219   1.31322   1.35105   1.35363
 Alpha virt. eigenvalues --    1.41424   1.45895   1.52316   1.78083   1.83673
 Alpha virt. eigenvalues --    1.86195   1.94501   1.95247   1.96969   1.98044
 Alpha virt. eigenvalues --    2.06801   2.10388   2.14859   2.19986   2.26373
 Alpha virt. eigenvalues --    2.29513   2.40763   2.41500   2.44979   2.52248
 Alpha virt. eigenvalues --    2.54867   2.56041   2.67225   2.67366   2.68087
 Alpha virt. eigenvalues --    2.69611   2.74623   2.86821   2.95930   3.03638
 Alpha virt. eigenvalues --    3.23165   3.29501   3.38929   3.45463   3.69784
 Alpha virt. eigenvalues --    3.70973   4.13765   4.21394   4.37587   4.64422
          Condensed to atoms (all electrons):
               1          2          3          4          5          6
     1  C    4.958747   0.381059   0.371083   0.629166  -0.050243  -0.033858
     2  H    0.381059   0.600931  -0.044102  -0.036013   0.005947  -0.011467
     3  H    0.371083  -0.044102   0.594168  -0.018814  -0.007825   0.003960
     4  C    0.629166  -0.036013  -0.018814   4.711380   0.378544   0.456507
     5  H   -0.050243   0.005947  -0.007825   0.378544   0.638224  -0.050651
     6  C   -0.033858  -0.011467   0.003960   0.456507  -0.050651   4.711380
     7  H   -0.007353   0.005622   0.000008  -0.050651   0.005656   0.378544
     8  C    0.004099   0.000312  -0.000237  -0.033858  -0.007353   0.629166
     9  H    0.000312   0.000012  -0.000004  -0.011467   0.005622  -0.036013
    10  H   -0.000237  -0.000004   0.000003   0.003960   0.000008  -0.018814
               7          8          9         10
     1  C   -0.007353   0.004099   0.000312  -0.000237
     2  H    0.005622   0.000312   0.000012  -0.000004
     3  H    0.000008  -0.000237  -0.000004   0.000003
     4  C   -0.050651  -0.033858  -0.011467   0.003960
     5  H    0.005656  -0.007353   0.005622   0.000008
     6  C    0.378544   0.629166  -0.036013  -0.018814
     7  H    0.638224  -0.050243   0.005947  -0.007825
     8  C   -0.050243   4.958747   0.381059   0.371083
     9  H    0.005947   0.381059   0.600931  -0.044102
    10  H   -0.007825   0.371083  -0.044102   0.594168
 Mulliken charges:
               1
     1  C   -0.252776
     2  H    0.097702
     3  H    0.101761
     4  C   -0.028756
     5  H    0.082070
     6  C   -0.028756
     7  H    0.082070
     8  C   -0.252776
     9  H    0.097702
    10  H    0.101761
 Sum of Mulliken charges =  -0.00000
 Mulliken charges with hydrogens summed into heavy atoms:
               1
     1  C   -0.053314
     4  C    0.053314
     6  C    0.053314
     8  C   -0.053314
 APT charges:
               1
     1  C   -0.106919
     2  H    0.024940
     3  H    0.024546
     4  C    0.055475
     5  H    0.001958
     6  C    0.055475
     7  H    0.001958
     8  C   -0.106919
     9  H    0.024940
    10  H    0.024546
 Sum of APT charges =   0.00000
 APT charges with hydrogens summed into heavy atoms:
               1
     1  C   -0.057433
     4  C    0.057433
     6  C    0.057433
     8  C   -0.057433
 Electronic spatial extent (au):  <R**2>=            335.7358
 Charge=             -0.0000 electrons
 Dipole moment (field-independent basis, Debye):
    X=              0.0000    Y=              0.0000    Z=              0.0000  Tot=              0.0000
 Quadrupole moment (field-independent basis, Debye-Ang):
   XX=            -22.7040   YY=            -22.8459   ZZ=            -27.8649
   XY=             -0.0819   XZ=              0.0000   YZ=              0.0000
 Traceless Quadrupole moment (field-independent basis, Debye-Ang):
   XX=              1.7676   YY=              1.6257   ZZ=             -3.3933
   XY=             -0.0819   XZ=              0.0000   YZ=              0.0000
 Octapole moment (field-independent basis, Debye-Ang**2):
  XXX=              0.0000  YYY=              0.0000  ZZZ=              0.0000  XYY=              0.0000
  XXY=              0.0000  XXZ=              0.0000  XZZ=             -0.0000  YZZ=             -0.0000
  YYZ=              0.0000  XYZ=              0.0000
 Hexadecapole moment (field-independent basis, Debye-Ang**3):
 XXXX=           -104.3504 YYYY=           -305.4178 ZZZZ=            -28.8457 XXXY=            -46.6951
 XXXZ=              0.0000 YYYX=            -47.0486 YYYZ=              0.0000 ZZZX=              0.0000
 ZZZY=              0.0000 XXYY=            -63.4765 XXZZ=            -25.3275 YYZZ=            -64.3878
 XXYZ=              0.0000 YYXZ=              0.0000 ZZXY=            -19.5433
 N-N= 1.035939672531D+02 E-N=-5.676564653502D+02  KE= 1.544207684668D+02
 Symmetry AG   KE= 7.668430605114D+01
 Symmetry BG   KE= 2.230414167110D+00
 Symmetry AU   KE= 1.974724945690D+00
 Symmetry BU   KE= 7.353132330284D+01
  Exact polarizability:  41.092   9.396  76.638  -0.000   0.000  16.045
 Approx polarizability:  54.324  13.439 128.789  -0.000  -0.000  22.646
 Calling FoFJK, ICntrl=    100127 FMM=F ISym2X=1 I1Cent= 0 IOpClX= 0 NMat=1 NMatS=1 NMatT=0.
 Full mass-weighted force constant matrix:
 Low frequencies ---   -0.0012   -0.0011   -0.0010    2.1739    4.1980   11.6191
 Low frequencies ---  177.0747  295.7032  516.2106
 Diagonal vibrational polarizability:
        0.4334986       0.7959886       3.7773857
 Harmonic frequencies (cm**-1), IR intensities (KM/Mole), Raman scattering
 activities (A**4/AMU), depolarization ratios for plane and unpolarized
 incident light, reduced masses (AMU), force constants (mDyne/A),
 and normal coordinates:
                           1         2         3         4         5
                          AU        BU        AG        AU        BG
       Frequencies ---   177.0747  295.7032  516.2106  540.3504  781.7941
    Reduced masses ---     2.6421    2.1621    2.6778    1.0738    1.6573
   Force constants ---     0.0488    0.1114    0.4204    0.1847    0.5968
    IR Intensities ---     0.1993    2.6019    0.0000    7.6093    0.0000
 Coord Atom Element:
   1     1     6          0.00000  -0.14489   0.08955  -0.00000   0.00000
   2     1     6          0.00000  -0.00369   0.19414  -0.00000   0.00000
   3     1     6         -0.17955  -0.00000   0.00000   0.01631   0.01009
   1     2     1          0.00000  -0.31923   0.25605  -0.00000   0.00000
   2     2     1          0.00000  -0.28710   0.46733  -0.00000  -0.00000
   3     2     1         -0.43647   0.00000  -0.00000  -0.38651  -0.32318
   1     3     1          0.00000  -0.32102   0.25276  -0.00000  -0.00000
   2     3     1         -0.00000   0.27858  -0.06060   0.00000   0.00000
   3     3     1         -0.27090  -0.00000   0.00000   0.49594   0.59818
   1     4     6         -0.00000   0.17734  -0.06989   0.00000  -0.00000
   2     4     6          0.00000  -0.00687   0.15928  -0.00000   0.00000
   3     4     6          0.20518   0.00000  -0.00000  -0.05228  -0.17158
   1     5     1          0.00000   0.25389  -0.00173   0.00000  -0.00000
   2     5     1          0.00000   0.13429   0.26927  -0.00000  -0.00000
   3     5     1          0.40221  -0.00000   0.00000   0.31884   0.09054
   1     6     6          0.00000   0.17734   0.06989  -0.00000  -0.00000
   2     6     6         -0.00000  -0.00687  -0.15928   0.00000  -0.00000
   3     6     6          0.20518   0.00000  -0.00000  -0.05228   0.17158
   1     7     1         -0.00000   0.25389   0.00173   0.00000  -0.00000
   2     7     1         -0.00000   0.13429  -0.26927   0.00000  -0.00000
   3     7     1          0.40221  -0.00000   0.00000   0.31884  -0.09054
   1     8     6         -0.00000  -0.14489  -0.08955   0.00000  -0.00000
   2     8     6         -0.00000  -0.00369  -0.19414   0.00000  -0.00000
   3     8     6         -0.17955  -0.00000   0.00000   0.01631  -0.01009
   1     9     1         -0.00000  -0.31923  -0.25605   0.00000  -0.00000
   2     9     1         -0.00000  -0.28710  -0.46733   0.00000  -0.00000
   3     9     1         -0.43647   0.00000  -0.00000  -0.38651   0.32318
   1    10     1         -0.00000  -0.32102  -0.25276   0.00000  -0.00000
   2    10     1          0.00000   0.27858   0.06060  -0.00000  -0.00000
   3    10     1         -0.27090  -0.00000   0.00000   0.49594  -0.59818
                           6         7         8         9        10
                          AG        AU        BG        BG        BU
       Frequencies ---   904.7968  930.7135  934.3515 1003.2907 1005.9447
    Reduced masses ---     1.8091    1.3649    1.3417    1.1828    1.1983
   Force constants ---     0.8726    0.6966    0.6901    0.7015    0.7144
    IR Intensities ---     0.0000   74.4699    0.0000    0.0000    2.2619
 Coord Atom Element:
   1     1     6          0.09390  -0.00000   0.00000  -0.00000   0.08321
   2     1     6          0.09198  -0.00000   0.00000  -0.00000   0.01271
   3     1     6         -0.00000  -0.12087  -0.11728   0.02129   0.00000
   1     2     1         -0.15810   0.00000  -0.00000   0.00000  -0.16036
   2     2     1         -0.30567   0.00000  -0.00000   0.00000  -0.37583
   3     2     1         -0.00000   0.48845   0.53981   0.26938   0.00000
   1     3     1         -0.18586   0.00000  -0.00000   0.00000  -0.15994
   2     3     1          0.54782  -0.00000   0.00000  -0.00000   0.39854
   3     3     1          0.00000   0.49454   0.43683  -0.24533  -0.00000
   1     4     6          0.13261  -0.00000   0.00000   0.00000  -0.03818
   2     4     6          0.03981  -0.00000   0.00000  -0.00000   0.01104
   3     4     6          0.00000   0.04039   0.03787  -0.08663  -0.00000
   1     5     1          0.08760  -0.00000   0.00000   0.00000  -0.21588
   2     5     1         -0.05287   0.00000  -0.00000   0.00000  -0.30554
   3     5     1         -0.00000  -0.02466   0.05094   0.59941   0.00000
   1     6     6         -0.13261   0.00000  -0.00000   0.00000  -0.03818
   2     6     6         -0.03981   0.00000  -0.00000  -0.00000   0.01104
   3     6     6          0.00000   0.04039  -0.03787   0.08663   0.00000
   1     7     1         -0.08760   0.00000  -0.00000   0.00000  -0.21588
   2     7     1          0.05287   0.00000  -0.00000   0.00000  -0.30554
   3     7     1          0.00000  -0.02466  -0.05094  -0.59941  -0.00000
   1     8     6         -0.09390   0.00000  -0.00000  -0.00000   0.08321
   2     8     6         -0.09198   0.00000  -0.00000  -0.00000   0.01271
   3     8     6         -0.00000  -0.12087   0.11728  -0.02129  -0.00000
   1     9     1          0.15810  -0.00000   0.00000   0.00000  -0.16036
   2     9     1          0.30567  -0.00000   0.00000   0.00000  -0.37583
   3     9     1          0.00000   0.48845  -0.53981  -0.26938  -0.00000
   1    10     1          0.18586  -0.00000   0.00000   0.00000  -0.15994
   2    10     1         -0.54782   0.00000  -0.00000  -0.00000   0.39854
   3    10     1          0.00000   0.49454  -0.43683   0.24533   0.00000
                          11        12        13        14        15
                          AU        AG        AG        BU        BU
       Frequencies ---  1063.6273 1234.4647 1322.5102 1323.5691 1426.1816
    Reduced masses ---     1.0918    1.9491    1.3486    1.2781    1.2384
   Force constants ---     0.7278    1.7500    1.3897    1.3191    1.4841
    IR Intensities ---    24.8625    0.0000    0.0000    1.9973    3.0515
 Coord Atom Element:
   1     1     6         -0.00000  -0.06365   0.06138   0.06274   0.01228
   2     1     6         -0.00000  -0.01668  -0.06904  -0.04952   0.01925
   3     1     6          0.00333   0.00000  -0.00000  -0.00000   0.00000
   1     2     1          0.00000   0.10575  -0.11974  -0.06493   0.22320
   2     2     1          0.00000   0.24789  -0.38082  -0.25382   0.39735
   3     2     1          0.31622  -0.00000   0.00000   0.00000   0.00000
   1     3     1          0.00000   0.07793   0.03513  -0.02632  -0.23894
   2     3     1         -0.00000  -0.23196  -0.04832   0.08295   0.45695
   3     3     1         -0.21309   0.00000  -0.00000   0.00000  -0.00000
   1     4     6          0.00000   0.19610  -0.06808  -0.07554  -0.01887
   2     4     6         -0.00000  -0.00536   0.04829   0.01404  -0.09804
   3     4     6         -0.06173   0.00000  -0.00000  -0.00000  -0.00000
   1     5     1          0.00000   0.41955   0.19805   0.24375   0.09423
   2     5     1          0.00000   0.38556   0.53136   0.59336   0.08388
   3     5     1          0.59226  -0.00000   0.00000   0.00000   0.00000
   1     6     6          0.00000  -0.19610   0.06808  -0.07554  -0.01887
   2     6     6          0.00000   0.00536  -0.04829   0.01404  -0.09804
   3     6     6         -0.06173   0.00000  -0.00000  -0.00000  -0.00000
   1     7     1          0.00000  -0.41955  -0.19805   0.24375   0.09423
   2     7     1          0.00000  -0.38556  -0.53136   0.59336   0.08388
   3     7     1          0.59226   0.00000   0.00000  -0.00000   0.00000
   1     8     6          0.00000   0.06365  -0.06138   0.06274   0.01228
   2     8     6          0.00000   0.01668   0.06904  -0.04952   0.01925
   3     8     6          0.00333  -0.00000  -0.00000   0.00000  -0.00000
   1     9     1         -0.00000  -0.10575   0.11974  -0.06493   0.22320
   2     9     1         -0.00000  -0.24789   0.38082  -0.25382   0.39735
   3     9     1          0.31622   0.00000   0.00000  -0.00000   0.00000
   1    10     1          0.00000  -0.07793  -0.03513  -0.02632  -0.23894
   2    10     1         -0.00000   0.23196   0.04832   0.08295   0.45695
   3    10     1         -0.21309  -0.00000   0.00000   0.00000   0.00000
                          16        17        18        19        20
                          AG        BU        AG        AG        BU
       Frequencies ---  1485.7661 1673.2173 1726.5814 3142.3592 3152.2791
    Reduced masses ---     1.2212    3.6548    4.5418    1.0793    1.0727
   Force constants ---     1.5883    6.0286    7.9773    6.2795    6.2804
    IR Intensities ---     0.0000   12.6042    0.0000    0.0000   30.3344
 Coord Atom Element:
   1     1     6          0.01747   0.01499  -0.00656   0.00178   0.00121
   2     1     6         -0.04918   0.26045  -0.23539   0.01607   0.02494
   3     1     6          0.00000  -0.00000   0.00000  -0.00000  -0.00000
   1     2     1          0.24240  -0.34224   0.27606   0.16163   0.24050
   2     2     1          0.33779  -0.27281   0.17636  -0.09222  -0.14421
   3     2     1          0.00000  -0.00000  -0.00000   0.00000   0.00000
   1     3     1         -0.27081   0.33179  -0.25715  -0.18467  -0.25472
   2     3     1          0.43319  -0.20203   0.11659  -0.10682  -0.15164
   3     3     1         -0.00000   0.00000  -0.00000   0.00000   0.00000
   1     4     6         -0.04893  -0.02899   0.07064  -0.04827  -0.04222
   2     4     6         -0.06773  -0.22695   0.31671   0.02572   0.02335
   3     4     6         -0.00000   0.00000  -0.00000   0.00000   0.00000
   1     5     1          0.10241   0.17713  -0.28323   0.56280   0.50256
   2     5     1          0.21438   0.07596  -0.26833  -0.31601  -0.27923
   3     5     1          0.00000  -0.00000   0.00000  -0.00000  -0.00000
   1     6     6          0.04893  -0.02899  -0.07064   0.04827  -0.04222
   2     6     6          0.06773  -0.22695  -0.31671  -0.02572   0.02335
   3     6     6         -0.00000   0.00000  -0.00000   0.00000   0.00000
   1     7     1         -0.10241   0.17713   0.28323  -0.56280   0.50256
   2     7     1         -0.21438   0.07596   0.26833   0.31601  -0.27923
   3     7     1         -0.00000   0.00000   0.00000  -0.00000  -0.00000
   1     8     6         -0.01747   0.01499   0.00656  -0.00178   0.00121
   2     8     6          0.04918   0.26045   0.23539  -0.01607   0.02494
   3     8     6          0.00000  -0.00000  -0.00000   0.00000   0.00000
   1     9     1         -0.24240  -0.34224  -0.27606  -0.16163   0.24050
   2     9     1         -0.33779  -0.27281  -0.17636   0.09222  -0.14421
   3     9     1         -0.00000   0.00000   0.00000   0.00000  -0.00000
   1    10     1          0.27081   0.33179   0.25715   0.18467  -0.25472
   2    10     1         -0.43319  -0.20203  -0.11659   0.10682  -0.15164
   3    10     1          0.00000   0.00000   0.00000  -0.00000  -0.00000
                          21        22        23        24
                          BU        AG        AG        BU
       Frequencies ---  3157.1836 3157.9477 3244.6414 3245.0445
    Reduced masses ---     1.0782    1.0699    1.1158    1.1155
   Force constants ---     6.3323    6.2864    6.9211    6.9206
    IR Intensities ---     6.4228    0.0000    0.0000   30.0778
 Coord Atom Element:
   1     1     6         -0.01235  -0.01168  -0.06929  -0.06902
   2     1     6          0.04165   0.04507  -0.00790  -0.00793
   3     1     6         -0.00000  -0.00000  -0.00000  -0.00000
   1     2     1          0.42632   0.46139   0.35174   0.35182
   2     2     1         -0.25372  -0.27575  -0.22101  -0.22222
   3     2     1          0.00000   0.00000   0.00000   0.00000
   1     3     1         -0.27173  -0.31947   0.47814   0.47571
   2     3     1         -0.15801  -0.18928   0.29961   0.29765
   3     3     1          0.00000   0.00000  -0.00000  -0.00000
   1     4     6          0.02781   0.01991  -0.00596  -0.00668
   2     4     6         -0.02327  -0.01612   0.00365   0.00495
   3     4     6         -0.00000  -0.00000  -0.00000  -0.00000
   1     5     1         -0.33861  -0.23121   0.05472   0.07386
   2     5     1          0.19290   0.13003  -0.03387  -0.03993
   3     5     1          0.00000  -0.00000   0.00000   0.00000
   1     6     6          0.02781  -0.01991   0.00596  -0.00668
   2     6     6         -0.02327   0.01612  -0.00365   0.00495
   3     6     6          0.00000   0.00000  -0.00000  -0.00000
   1     7     1         -0.33861   0.23121  -0.05472   0.07386
   2     7     1          0.19290  -0.13003   0.03387  -0.03993
   3     7     1         -0.00000  -0.00000  -0.00000   0.00000
   1     8     6         -0.01235   0.01168   0.06929  -0.06902
   2     8     6          0.04165  -0.04507   0.00790  -0.00793
   3     8     6         -0.00000  -0.00000   0.00000  -0.00000
   1     9     1          0.42632  -0.46139  -0.35174   0.35182
   2     9     1         -0.25372   0.27575   0.22101  -0.22222
   3     9     1          0.00000   0.00000  -0.00000   0.00000
   1    10     1         -0.27173   0.31947  -0.47814   0.47571
   2    10     1         -0.15801   0.18928  -0.29961   0.29765
   3    10     1          0.00000  -0.00000  -0.00000   0.00000
 Harmonic frequencies (cm**-1), IR intensities (KM/Mole), Raman scattering
 activities (A**4/AMU), depolarization ratios for plane and unpolarized
 incident light, reduced masses (AMU), force constants (mDyne/A),
 and normal coordinates:
                      1                      2                      3
                     AU                     BU                     AG
 Frequencies --    177.0747               295.7032               516.2106
 Red. masses --      2.6421                 2.1621                 2.6778
 Frc consts  --      0.0488                 0.1114                 0.4204
 IR Inten    --      0.1993                 2.6019                 0.0000
  Atom  AN      X      Y      Z        X      Y      Z        X      Y      Z
     1   6     0.00   0.00  -0.18    -0.14  -0.00  -0.00     0.09   0.19   0.00
     2   1     0.00   0.00  -0.44    -0.32  -0.29   0.00     0.26   0.47  -0.00
     3   1     0.00  -0.00  -0.27    -0.32   0.28  -0.00     0.25  -0.06   0.00
     4   6    -0.00   0.00   0.21     0.18  -0.01   0.00    -0.07   0.16  -0.00
     5   1     0.00   0.00   0.40     0.25   0.13  -0.00    -0.00   0.27   0.00
     6   6     0.00  -0.00   0.21     0.18  -0.01   0.00     0.07  -0.16  -0.00
     7   1    -0.00  -0.00   0.40     0.25   0.13  -0.00     0.00  -0.27   0.00
     8   6    -0.00  -0.00  -0.18    -0.14  -0.00  -0.00    -0.09  -0.19   0.00
     9   1    -0.00  -0.00  -0.44    -0.32  -0.29   0.00    -0.26  -0.47  -0.00
    10   1    -0.00   0.00  -0.27    -0.32   0.28  -0.00    -0.25   0.06   0.00
                      4                      5                      6
                     AU                     BG                     AG
 Frequencies --    540.3504               781.7941               904.7968
 Red. masses --      1.0738                 1.6573                 1.8091
 Frc consts  --      0.1847                 0.5968                 0.8726
 IR Inten    --      7.6093                 0.0000                 0.0000
  Atom  AN      X      Y      Z        X      Y      Z        X      Y      Z
     1   6    -0.00  -0.00   0.02     0.00   0.00   0.01     0.09   0.09  -0.00
     2   1    -0.00  -0.00  -0.39     0.00  -0.00  -0.32    -0.16  -0.31  -0.00
     3   1    -0.00   0.00   0.50    -0.00   0.00   0.60    -0.19   0.55   0.00
     4   6     0.00  -0.00  -0.05    -0.00   0.00  -0.17     0.13   0.04   0.00
     5   1     0.00  -0.00   0.32    -0.00  -0.00   0.09     0.09  -0.05  -0.00
     6   6    -0.00   0.00  -0.05    -0.00  -0.00   0.17    -0.13  -0.04   0.00
     7   1     0.00   0.00   0.32    -0.00  -0.00  -0.09    -0.09   0.05   0.00
     8   6     0.00   0.00   0.02    -0.00  -0.00  -0.01    -0.09  -0.09  -0.00
     9   1     0.00   0.00  -0.39    -0.00  -0.00   0.32     0.16   0.31   0.00
    10   1     0.00  -0.00   0.50    -0.00  -0.00  -0.60     0.19  -0.55   0.00
                      7                      8                      9
                     AU                     BG                     BG
 Frequencies --    930.7135               934.3515              1003.2907
 Red. masses --      1.3649                 1.3417                 1.1828
 Frc consts  --      0.6966                 0.6901                 0.7015
 IR Inten    --     74.4699                 0.0000                 0.0000
  Atom  AN      X      Y      Z        X      Y      Z        X      Y      Z
     1   6    -0.00  -0.00  -0.12     0.00   0.00  -0.12    -0.00  -0.00   0.02
     2   1     0.00   0.00   0.49    -0.00  -0.00   0.54     0.00   0.00   0.27
     3   1     0.00  -0.00   0.49    -0.00   0.00   0.44     0.00  -0.00  -0.25
     4   6    -0.00  -0.00   0.04     0.00   0.00   0.04     0.00  -0.00  -0.09
     5   1    -0.00   0.00  -0.02     0.00  -0.00   0.05     0.00   0.00   0.60
     6   6     0.00   0.00   0.04    -0.00  -0.00  -0.04     0.00  -0.00   0.09
     7   1     0.00   0.00  -0.02    -0.00  -0.00  -0.05     0.00   0.00  -0.60
     8   6     0.00   0.00  -0.12    -0.00  -0.00   0.12    -0.00  -0.00  -0.02
     9   1    -0.00  -0.00   0.49     0.00   0.00  -0.54     0.00   0.00  -0.27
    10   1    -0.00   0.00   0.49     0.00  -0.00  -0.44     0.00  -0.00   0.25
                     10                     11                     12
                     BU                     AU                     AG
 Frequencies --   1005.9447              1063.6273              1234.4647
 Red. masses --      1.1983                 1.0918                 1.9491
 Frc consts  --      0.7144                 0.7278                 1.7500
 IR Inten    --      2.2619                24.8625                 0.0000
  Atom  AN      X      Y      Z        X      Y      Z        X      Y      Z
     1   6     0.08   0.01   0.00    -0.00  -0.00   0.00    -0.06  -0.02   0.00
     2   1    -0.16  -0.38   0.00     0.00   0.00   0.32     0.11   0.25  -0.00
     3   1    -0.16   0.40  -0.00     0.00  -0.00  -0.21     0.08  -0.23   0.00
     4   6    -0.04   0.01  -0.00     0.00  -0.00  -0.06     0.20  -0.01   0.00
     5   1    -0.22  -0.31   0.00     0.00   0.00   0.59     0.42   0.39  -0.00
     6   6    -0.04   0.01   0.00     0.00   0.00  -0.06    -0.20   0.01   0.00
     7   1    -0.22  -0.31  -0.00     0.00   0.00   0.59    -0.42  -0.39   0.00
     8   6     0.08   0.01  -0.00     0.00   0.00   0.00     0.06   0.02  -0.00
     9   1    -0.16  -0.38  -0.00    -0.00  -0.00   0.32    -0.11  -0.25   0.00
    10   1    -0.16   0.40   0.00     0.00  -0.00  -0.21    -0.08   0.23  -0.00
                     13                     14                     15
                     AG                     BU                     BU
 Frequencies --   1322.5102              1323.5691              1426.1816
 Red. masses --      1.3486                 1.2781                 1.2384
 Frc consts  --      1.3897                 1.3191                 1.4841
 IR Inten    --      0.0000                 1.9973                 3.0515
  Atom  AN      X      Y      Z        X      Y      Z        X      Y      Z
     1   6     0.06  -0.07  -0.00     0.06  -0.05  -0.00     0.01   0.02   0.00
     2   1    -0.12  -0.38   0.00    -0.06  -0.25   0.00     0.22   0.40   0.00
     3   1     0.04  -0.05  -0.00    -0.03   0.08   0.00    -0.24   0.46  -0.00
     4   6    -0.07   0.05  -0.00    -0.08   0.01  -0.00    -0.02  -0.10  -0.00
     5   1     0.20   0.53   0.00     0.24   0.59   0.00     0.09   0.08   0.00
     6   6     0.07  -0.05  -0.00    -0.08   0.01  -0.00    -0.02  -0.10  -0.00
     7   1    -0.20  -0.53   0.00     0.24   0.59  -0.00     0.09   0.08   0.00
     8   6    -0.06   0.07  -0.00     0.06  -0.05   0.00     0.01   0.02  -0.00
     9   1     0.12   0.38   0.00    -0.06  -0.25  -0.00     0.22   0.40   0.00
    10   1    -0.04   0.05   0.00    -0.03   0.08   0.00    -0.24   0.46   0.00
                     16                     17                     18
                     AG                     BU                     AG
 Frequencies --   1485.7661              1673.2173              1726.5814
 Red. masses --      1.2212                 3.6548                 4.5418
 Frc consts  --      1.5883                 6.0286                 7.9773
 IR Inten    --      0.0000                12.6042                 0.0000
  Atom  AN      X      Y      Z        X      Y      Z        X      Y      Z
     1   6     0.02  -0.05   0.00     0.01   0.26  -0.00    -0.01  -0.24   0.00
     2   1     0.24   0.34   0.00    -0.34  -0.27  -0.00     0.28   0.18  -0.00
     3   1    -0.27   0.43  -0.00     0.33  -0.20   0.00    -0.26   0.12  -0.00
     4   6    -0.05  -0.07  -0.00    -0.03  -0.23   0.00     0.07   0.32  -0.00
     5   1     0.10   0.21   0.00     0.18   0.08  -0.00    -0.28  -0.27   0.00
     6   6     0.05   0.07  -0.00    -0.03  -0.23   0.00    -0.07  -0.32  -0.00
     7   1    -0.10  -0.21  -0.00     0.18   0.08   0.00     0.28   0.27   0.00
     8   6    -0.02   0.05   0.00     0.01   0.26  -0.00     0.01   0.24  -0.00
     9   1    -0.24  -0.34  -0.00    -0.34  -0.27   0.00    -0.28  -0.18   0.00
    10   1     0.27  -0.43   0.00     0.33  -0.20   0.00     0.26  -0.12   0.00
                     19                     20                     21
                     AG                     BU                     BU
 Frequencies --   3142.3592              3152.2791              3157.1836
 Red. masses --      1.0793                 1.0727                 1.0782
 Frc consts  --      6.2795                 6.2804                 6.3323
 IR Inten    --      0.0000                30.3344                 6.4228
  Atom  AN      X      Y      Z        X      Y      Z        X      Y      Z
     1   6     0.00   0.02  -0.00     0.00   0.02  -0.00    -0.01   0.04  -0.00
     2   1     0.16  -0.09   0.00     0.24  -0.14   0.00     0.43  -0.25   0.00
     3   1    -0.18  -0.11   0.00    -0.25  -0.15   0.00    -0.27  -0.16   0.00
     4   6    -0.05   0.03   0.00    -0.04   0.02   0.00     0.03  -0.02  -0.00
     5   1     0.56  -0.32  -0.00     0.50  -0.28  -0.00    -0.34   0.19   0.00
     6   6     0.05  -0.03   0.00    -0.04   0.02   0.00     0.03  -0.02   0.00
     7   1    -0.56   0.32  -0.00     0.50  -0.28  -0.00    -0.34   0.19  -0.00
     8   6    -0.00  -0.02   0.00     0.00   0.02   0.00    -0.01   0.04  -0.00
     9   1    -0.16   0.09   0.00     0.24  -0.14  -0.00     0.43  -0.25   0.00
    10   1     0.18   0.11  -0.00    -0.25  -0.15  -0.00    -0.27  -0.16   0.00
                     22                     23                     24
                     AG                     AG                     BU
 Frequencies --   3157.9477              3244.6414              3245.0445
 Red. masses --      1.0699                 1.1158                 1.1155
 Frc consts  --      6.2864                 6.9211                 6.9206
 IR Inten    --      0.0000                 0.0000                30.0778
  Atom  AN      X      Y      Z        X      Y      Z        X      Y      Z
     1   6    -0.01   0.05  -0.00    -0.07  -0.01  -0.00    -0.07  -0.01  -0.00
     2   1     0.46  -0.28   0.00     0.35  -0.22   0.00     0.35  -0.22   0.00
     3   1    -0.32  -0.19   0.00     0.48   0.30  -0.00     0.48   0.30  -0.00
     4   6     0.02  -0.02  -0.00    -0.01   0.00  -0.00    -0.01   0.00  -0.00
     5   1    -0.23   0.13  -0.00     0.05  -0.03   0.00     0.07  -0.04   0.00
     6   6    -0.02   0.02   0.00     0.01  -0.00  -0.00    -0.01   0.00  -0.00
     7   1     0.23  -0.13  -0.00    -0.05   0.03  -0.00     0.07  -0.04   0.00
     8   6     0.01  -0.05  -0.00     0.07   0.01   0.00    -0.07  -0.01  -0.00
     9   1    -0.46   0.28   0.00    -0.35   0.22  -0.00     0.35  -0.22   0.00
    10   1     0.32   0.19  -0.00    -0.48  -0.30  -0.00     0.48   0.30   0.00

 -------------------
 - Thermochemistry -
 -------------------
 Temperature   298.150 Kelvin.  Pressure   1.00000 Atm.
 Atom     1 has atomic number  6 and mass  12.00000
 Atom     2 has atomic number  1 and mass   1.00783
 Atom     3 has atomic number  1 and mass   1.00783
 Atom     4 has atomic number  6 and mass  12.00000
 Atom     5 has atomic number  1 and mass   1.00783
 Atom     6 has atomic number  6 and mass  12.00000
 Atom     7 has atomic number  1 and mass   1.00783
 Atom     8 has atomic number  6 and mass  12.00000
 Atom     9 has atomic number  1 and mass   1.00783
 Atom    10 has atomic number  1 and mass   1.00783
 Molecular mass:    54.04695 amu.
 Principal axes and moments of inertia in atomic units:
                           1         2         3
     Eigenvalues --    42.62553 409.01607 451.64160
           X            0.38483   0.92299   0.00000
           Y            0.92299  -0.38483   0.00000
           Z            0.00000  -0.00000   1.00000
 This molecule is an asymmetric top.
 Rotational symmetry number  2.
 Rotational temperatures (Kelvin)      2.03197     0.21176     0.19178
 Rotational constants (GHZ):          42.33945     4.41240     3.99596
 Zero-point vibrational energy     223974.4 (Joules/Mol)
                                   53.53118 (Kcal/Mol)
 Warning -- explicit consideration of   4 degrees of freedom as
           vibrations may cause significant error
 Vibrational temperatures:    254.77   425.45   742.71   777.44  1124.83
          (Kelvin)           1301.80  1339.09  1344.32  1443.51  1447.33
                             1530.32  1776.12  1902.80  1904.32  2051.96
                             2137.69  2407.39  2484.17  4521.15  4535.43
                             4542.48  4543.58  4668.32  4668.90
 
 Zero-point correction=                           0.085307 (Hartree/Particle)
 Thermal correction to Energy=                    0.089956
 Thermal correction to Enthalpy=                  0.090900
 Thermal correction to Gibbs Free Energy=         0.059515
 Sum of electronic and zero-point Energies=           -155.916355
 Sum of electronic and thermal Energies=              -155.911707
 Sum of electronic and thermal Enthalpies=            -155.910763
 Sum of electronic and thermal Free Energies=         -155.942148
 
                     E (Thermal)             CV                S
                      KCal/Mol        Cal/Mol-Kelvin    Cal/Mol-Kelvin
 Total                   56.448             15.742             66.055
 Electronic               0.000              0.000              0.000
 Translational            0.889              2.981             37.884
 Rotational               0.889              2.981             22.203
 Vibrational             54.671              9.781              5.969
 Vibration     1          0.628              1.871              2.359
 Vibration     2          0.690              1.682              1.441
 Vibration     3          0.871              1.214              0.619
 Vibration     4          0.895              1.161              0.565
                       Q            Log10(Q)             Ln(Q)
 Total Bot       0.421687D-27        -27.375010        -63.033291
 Total V=0       0.730496D+12         11.863618         27.316989
 Vib (Bot)       0.170005D-38        -38.769539        -89.270162
 Vib (Bot)    1  0.113541D+01          0.055151          0.126990
 Vib (Bot)    2  0.644680D+00         -0.190656         -0.439002
 Vib (Bot)    3  0.313774D+00         -0.503382         -1.159081
 Vib (Bot)    4  0.293110D+00         -0.532969         -1.227207
 Vib (V=0)       0.294503D+01          0.469089          1.080118
 Vib (V=0)    1  0.174062D+01          0.240705          0.554243
 Vib (V=0)    2  0.131585D+01          0.119207          0.274483
 Vib (V=0)    3  0.109030D+01          0.037546          0.086453
 Vib (V=0)    4  0.107958D+01          0.033255          0.076573
 Electronic      0.100000D+01          0.000000          0.000000
 Translational   0.156175D+08          7.193611         16.563901
 Rotational      0.158825D+05          4.200918          9.672970
                           ----------------------------
                           ! Normal Mode     1        !
 --------------------------                            --------------------------
 ! Name  Definition              Value          Relative Weight (%)             !
 --------------------------------------------------------------------------------
 ! R1    R(1,2)                  0.0                     0.0                    !
 ! R2    R(1,3)                  0.0                     0.0                    !
 ! R3    R(1,4)                  0.0                     0.0                    !
 ! R4    R(4,5)                  0.0                     0.0                    !
 ! R5    R(4,6)                  0.0                     0.0                    !
 ! R6    R(6,7)                  0.0                     0.0                    !
 ! R7    R(6,8)                  0.0                     0.0                    !
 ! R8    R(8,9)                  0.0                     0.0                    !
 ! R9    R(8,10)                 0.0                     0.0                    !
 ! A1    A(2,1,3)                0.0                     0.0                    !
 ! A2    A(2,1,4)                0.0                     0.0                    !
 ! A3    A(3,1,4)                0.0                     0.0                    !
 ! A4    A(1,4,5)                0.0                     0.0                    !
 ! A5    A(1,4,6)                0.0                     0.0                    !
 ! A6    A(5,4,6)                0.0                     0.0                    !
 ! A7    A(4,6,7)                0.0                     0.0                    !
 ! A8    A(4,6,8)                0.0                     0.0                    !
 ! A9    A(7,6,8)                0.0                     0.0                    !
 ! A10   A(6,8,9)                0.0                     0.0                    !
 ! A11   A(6,8,10)               0.0                     0.0                    !
 ! A12   A(9,8,10)               0.0                     0.0                    !
 ! D1    D(2,1,4,5)             -0.0295                  2.0                    !
 ! D2    D(2,1,4,6)              0.05                    3.4                    !
 ! D3    D(3,1,4,5)             -0.0177                  1.2                    !
 ! D4    D(3,1,4,6)              0.0619                  4.2                    !
 ! D5    D(1,4,6,7)             -0.2906                 19.6                    !
 ! D6    D(1,4,6,8)             -0.3679                 24.8                    !
 ! D7    D(5,4,6,7)             -0.2133                 14.4                    !
 ! D8    D(5,4,6,8)             -0.2906                 19.6                    !
 ! D9    D(4,6,8,9)              0.05                    3.4                    !
 ! D10   D(4,6,8,10)             0.0619                  4.2                    !
 ! D11   D(7,6,8,9)             -0.0295                  2.0                    !
 ! D12   D(7,6,8,10)            -0.0177                  1.2                    !
 --------------------------------------------------------------------------------
                           ----------------------------
                           ! Normal Mode     2        !
 --------------------------                            --------------------------
 ! Name  Definition              Value          Relative Weight (%)             !
 --------------------------------------------------------------------------------
 ! R1    R(1,2)                  0.0008                  0.1                    !
 ! R2    R(1,3)                 -0.001                   0.1                    !
 ! R3    R(1,4)                  0.0032                  0.5                    !
 ! R4    R(4,5)                 -0.0027                  0.4                    !
 ! R5    R(4,6)                  0.0                     0.0                    !
 ! R6    R(6,7)                  0.0027                  0.4                    !
 ! R7    R(6,8)                 -0.0032                  0.5                    !
 ! R8    R(8,9)                 -0.0008                  0.1                    !
 ! R9    R(8,10)                 0.001                   0.1                    !
 ! A1    A(2,1,3)               -0.0003                  0.0                    !
 ! A2    A(2,1,4)               -0.0347                  5.2                    !
 ! A3    A(3,1,4)                0.035                   5.3                    !
 ! A4    A(1,4,5)                0.0493                  7.4                    !
 ! A5    A(1,4,6)               -0.1273                 19.2                    !
 ! A6    A(5,4,6)                0.078                  11.7                    !
 ! A7    A(4,6,7)               -0.078                  11.7                    !
 ! A8    A(4,6,8)                0.1273                 19.2                    !
 ! A9    A(7,6,8)               -0.0493                  7.4                    !
 ! A10   A(6,8,9)                0.0347                  5.2                    !
 ! A11   A(6,8,10)              -0.035                   5.3                    !
 ! A12   A(9,8,10)               0.0003                  0.0                    !
 ! D1    D(2,1,4,5)              0.0                     0.0                    !
 ! D2    D(2,1,4,6)              0.0                     0.0                    !
 ! D3    D(3,1,4,5)              0.0                     0.0                    !
 ! D4    D(3,1,4,6)              0.0                     0.0                    !
 ! D5    D(1,4,6,7)              0.0                     0.0                    !
 ! D6    D(1,4,6,8)              0.0                     0.0                    !
 ! D7    D(5,4,6,7)              0.0                     0.0                    !
 ! D8    D(5,4,6,8)              0.0                     0.0                    !
 ! D9    D(4,6,8,9)              0.0                     0.0                    !
 ! D10   D(4,6,8,10)             0.0                     0.0                    !
 ! D11   D(7,6,8,9)              0.0                     0.0                    !
 ! D12   D(7,6,8,10)             0.0                     0.0                    !
 --------------------------------------------------------------------------------
                           ----------------------------
                           ! Normal Mode     3        !
 --------------------------                            --------------------------
 ! Name  Definition              Value          Relative Weight (%)             !
 --------------------------------------------------------------------------------
 ! R1    R(1,2)                  0.0006                  0.0                    !
 ! R2    R(1,3)                  0.0045                  0.4                    !
 ! R3    R(1,4)                  0.0349                  2.7                    !
 ! R4    R(4,5)                  0.0053                  0.4                    !
 ! R5    R(4,6)                  0.0641                  5.0                    !
 ! R6    R(6,7)                  0.0053                  0.4                    !
 ! R7    R(6,8)                  0.0349                  2.7                    !
 ! R8    R(8,9)                  0.0006                  0.0                    !
 ! R9    R(8,10)                 0.0045                  0.4                    !
 ! A1    A(2,1,3)               -0.0082                  0.6                    !
 ! A2    A(2,1,4)                0.0928                  7.3                    !
 ! A3    A(3,1,4)               -0.0846                  6.6                    !
 ! A4    A(1,4,5)               -0.1257                  9.9                    !
 ! A5    A(1,4,6)                0.1871                 14.7                    !
 ! A6    A(5,4,6)               -0.0614                  4.8                    !
 ! A7    A(4,6,7)               -0.0614                  4.8                    !
 ! A8    A(4,6,8)                0.1871                 14.7                    !
 ! A9    A(7,6,8)               -0.1257                  9.9                    !
 ! A10   A(6,8,9)                0.0928                  7.3                    !
 ! A11   A(6,8,10)              -0.0846                  6.6                    !
 ! A12   A(9,8,10)              -0.0082                  0.6                    !
 ! D1    D(2,1,4,5)              0.0                     0.0                    !
 ! D2    D(2,1,4,6)              0.0                     0.0                    !
 ! D3    D(3,1,4,5)              0.0                     0.0                    !
 ! D4    D(3,1,4,6)              0.0                     0.0                    !
 ! D5    D(1,4,6,7)              0.0                     0.0                    !
 ! D6    D(1,4,6,8)              0.0                     0.0                    !
 ! D7    D(5,4,6,7)              0.0                     0.0                    !
 ! D8    D(5,4,6,8)              0.0                     0.0                    !
 ! D9    D(4,6,8,9)              0.0                     0.0                    !
 ! D10   D(4,6,8,10)             0.0                     0.0                    !
 ! D11   D(7,6,8,9)              0.0                     0.0                    !
 ! D12   D(7,6,8,10)             0.0                     0.0                    !
 --------------------------------------------------------------------------------
                           ----------------------------
                           ! Normal Mode     4        !
 --------------------------                            --------------------------
 ! Name  Definition              Value          Relative Weight (%)             !
 --------------------------------------------------------------------------------
 ! R1    R(1,2)                  0.0                     0.0                    !
 ! R2    R(1,3)                  0.0                     0.0                    !
 ! R3    R(1,4)                  0.0                     0.0                    !
 ! R4    R(4,5)                  0.0                     0.0                    !
 ! R5    R(4,6)                  0.0                     0.0                    !
 ! R6    R(6,7)                  0.0                     0.0                    !
 ! R7    R(6,8)                  0.0                     0.0                    !
 ! R8    R(8,9)                  0.0                     0.0                    !
 ! R9    R(8,10)                 0.0                     0.0                    !
 ! A1    A(2,1,3)                0.0                     0.0                    !
 ! A2    A(2,1,4)                0.0                     0.0                    !
 ! A3    A(3,1,4)                0.0                     0.0                    !
 ! A4    A(1,4,5)                0.0                     0.0                    !
 ! A5    A(1,4,6)                0.0                     0.0                    !
 ! A6    A(5,4,6)                0.0                     0.0                    !
 ! A7    A(4,6,7)                0.0                     0.0                    !
 ! A8    A(4,6,8)                0.0                     0.0                    !
 ! A9    A(7,6,8)                0.0                     0.0                    !
 ! A10   A(6,8,9)                0.0                     0.0                    !
 ! A11   A(6,8,10)               0.0                     0.0                    !
 ! A12   A(9,8,10)               0.0                     0.0                    !
 ! D1    D(2,1,4,5)             -0.0243                  1.2                    !
 ! D2    D(2,1,4,6)             -0.2649                 13.2                    !
 ! D3    D(3,1,4,5)             -0.0363                  1.8                    !
 ! D4    D(3,1,4,6)             -0.2769                 13.8                    !
 ! D5    D(1,4,6,7)             -0.1681                  8.4                    !
 ! D6    D(1,4,6,8)              0.0656                  3.3                    !
 ! D7    D(5,4,6,7)             -0.4018                 20.0                    !
 ! D8    D(5,4,6,8)             -0.1681                  8.4                    !
 ! D9    D(4,6,8,9)             -0.2649                 13.2                    !
 ! D10   D(4,6,8,10)            -0.2769                 13.8                    !
 ! D11   D(7,6,8,9)             -0.0243                  1.2                    !
 ! D12   D(7,6,8,10)            -0.0363                  1.8                    !
 --------------------------------------------------------------------------------
                           ----------------------------
                           ! Normal Mode     5        !
 --------------------------                            --------------------------
 ! Name  Definition              Value          Relative Weight (%)             !
 --------------------------------------------------------------------------------
 ! R1    R(1,2)                  0.0                     0.0                    !
 ! R2    R(1,3)                  0.0                     0.0                    !
 ! R3    R(1,4)                  0.0                     0.0                    !
 ! R4    R(4,5)                  0.0                     0.0                    !
 ! R5    R(4,6)                  0.0                     0.0                    !
 ! R6    R(6,7)                  0.0                     0.0                    !
 ! R7    R(6,8)                  0.0                     0.0                    !
 ! R8    R(8,9)                  0.0                     0.0                    !
 ! R9    R(8,10)                 0.0                     0.0                    !
 ! A1    A(2,1,3)                0.0                     0.0                    !
 ! A2    A(2,1,4)                0.0                     0.0                    !
 ! A3    A(3,1,4)                0.0                     0.0                    !
 ! A4    A(1,4,5)                0.0                     0.0                    !
 ! A5    A(1,4,6)                0.0                     0.0                    !
 ! A6    A(5,4,6)                0.0                     0.0                    !
 ! A7    A(4,6,7)                0.0                     0.0                    !
 ! A8    A(4,6,8)                0.0                     0.0                    !
 ! A9    A(7,6,8)                0.0                     0.0                    !
 ! A10   A(6,8,9)                0.0                     0.0                    !
 ! A11   A(6,8,10)               0.0                     0.0                    !
 ! A12   A(9,8,10)               0.0                     0.0                    !
 ! D1    D(2,1,4,5)             -0.0475                  1.6                    !
 ! D2    D(2,1,4,6)             -0.4339                 14.9                    !
 ! D3    D(3,1,4,5)             -0.1064                  3.7                    !
 ! D4    D(3,1,4,6)             -0.4928                 16.9                    !
 ! D5    D(1,4,6,7)              0.3753                 12.9                    !
 ! D6    D(1,4,6,8)              0.0                     0.0                    !
 ! D7    D(5,4,6,7)              0.0                     0.0                    !
 ! D8    D(5,4,6,8)             -0.3753                 12.9                    !
 ! D9    D(4,6,8,9)              0.4339                 14.9                    !
 ! D10   D(4,6,8,10)             0.4928                 16.9                    !
 ! D11   D(7,6,8,9)              0.0475                  1.6                    !
 ! D12   D(7,6,8,10)             0.1064                  3.7                    !
 --------------------------------------------------------------------------------
                           ----------------------------
                           ! Normal Mode     6        !
 --------------------------                            --------------------------
 ! Name  Definition              Value          Relative Weight (%)             !
 --------------------------------------------------------------------------------
 ! R1    R(1,2)                  0.0074                  0.4                    !
 ! R2    R(1,3)                  0.0024                  0.1                    !
 ! R3    R(1,4)                  0.0522                  3.2                    !
 ! R4    R(4,5)                  0.0063                  0.4                    !
 ! R5    R(4,6)                  0.264                  16.1                    !
 ! R6    R(6,7)                  0.0063                  0.4                    !
 ! R7    R(6,8)                  0.0522                  3.2                    !
 ! R8    R(8,9)                  0.0074                  0.4                    !
 ! R9    R(8,10)                 0.0024                  0.1                    !
 ! A1    A(2,1,3)               -0.0317                  1.9                    !
 ! A2    A(2,1,4)               -0.2138                 13.0                    !
 ! A3    A(3,1,4)                0.2456                 14.9                    !
 ! A4    A(1,4,5)                0.0652                  4.0                    !
 ! A5    A(1,4,6)               -0.0457                  2.8                    !
 ! A6    A(5,4,6)               -0.0195                  1.2                    !
 ! A7    A(4,6,7)               -0.0195                  1.2                    !
 ! A8    A(4,6,8)               -0.0457                  2.8                    !
 ! A9    A(7,6,8)                0.0652                  4.0                    !
 ! A10   A(6,8,9)               -0.2138                 13.0                    !
[...]
      4  -0.648985D+00  0.651906D+00  0.633463D+00 -0.599603D+00 -0.338598D-01
      5  -0.415199D+00 -0.414565D+00  0.422853D+00  0.299943D+00 -0.722796D+00
      6   0.000000D+00  0.000000D+00  0.000000D+00  0.000000D+00  0.000000D+00
      7   0.394912D+00 -0.394912D+00 -0.238551D+00  0.204691D+00 -0.204691D+00
      8   0.000000D+00  0.000000D+00 -0.422853D+00 -0.299943D+00  0.299943D+00
      9   0.000000D+00  0.000000D+00  0.000000D+00  0.000000D+00  0.000000D+00
     10   0.000000D+00  0.000000D+00  0.000000D+00  0.000000D+00  0.000000D+00
     11   0.000000D+00  0.000000D+00  0.000000D+00  0.000000D+00  0.000000D+00
     12   0.000000D+00  0.000000D+00  0.000000D+00  0.000000D+00  0.000000D+00
                16            17            18            19            20 
      1   0.204691D+00 -0.204691D+00  0.238551D+00 -0.394912D+00  0.394912D+00
      2  -0.299943D+00  0.299943D+00  0.422853D+00  0.000000D+00  0.000000D+00
      3   0.000000D+00  0.000000D+00  0.000000D+00  0.000000D+00  0.000000D+00
      4   0.338598D-01  0.599603D+00 -0.633463D+00  0.648985D+00 -0.651906D+00
      5   0.722796D+00 -0.299943D+00 -0.422853D+00  0.415199D+00  0.414565D+00
      6   0.000000D+00  0.000000D+00  0.000000D+00  0.000000D+00  0.000000D+00
      7  -0.238551D+00 -0.394912D+00  0.394912D+00 -0.254073D+00  0.256994D+00
      8  -0.422853D+00  0.000000D+00  0.000000D+00 -0.415199D+00 -0.414565D+00
      9   0.000000D+00  0.000000D+00  0.000000D+00  0.000000D+00  0.000000D+00
     10   0.000000D+00  0.000000D+00  0.000000D+00  0.000000D+00  0.000000D+00
     11   0.000000D+00  0.000000D+00  0.000000D+00  0.000000D+00  0.000000D+00
     12   0.000000D+00  0.000000D+00  0.000000D+00  0.000000D+00  0.000000D+00
                21            22            23            24            25 
      1   0.254073D+00  0.000000D+00  0.000000D+00  0.000000D+00  0.000000D+00
      2   0.415199D+00  0.000000D+00  0.000000D+00  0.000000D+00  0.000000D+00
      3   0.000000D+00  0.570674D+00  0.570674D+00 -0.573878D+00 -0.573878D+00
      4   0.292064D-02  0.000000D+00  0.000000D+00  0.000000D+00  0.000000D+00
      5  -0.829764D+00  0.000000D+00  0.000000D+00  0.000000D+00  0.000000D+00
      6   0.000000D+00 -0.589545D+00 -0.108183D+01  0.104148D+01  0.549188D+00
      7  -0.256994D+00  0.000000D+00  0.000000D+00  0.000000D+00  0.000000D+00
      8   0.414565D+00  0.000000D+00  0.000000D+00  0.000000D+00  0.000000D+00
      9   0.000000D+00 -0.538560D+00  0.950792D+00 -0.102503D+01  0.464322D+00
     10   0.000000D+00  0.000000D+00  0.000000D+00  0.000000D+00  0.000000D+00
     11   0.000000D+00  0.000000D+00  0.000000D+00  0.000000D+00  0.000000D+00
     12   0.000000D+00  0.557431D+00 -0.439631D+00  0.557431D+00 -0.439631D+00
                26            27            28            29            30 
      1   0.000000D+00  0.000000D+00  0.000000D+00  0.000000D+00  0.000000D+00
      2   0.000000D+00  0.000000D+00  0.000000D+00  0.000000D+00  0.000000D+00
      3   0.478107D+00  0.478107D+00 -0.541372D+00 -0.541372D+00 -0.439631D+00
      4   0.000000D+00  0.000000D+00  0.000000D+00  0.000000D+00  0.000000D+00
      5   0.000000D+00  0.000000D+00  0.000000D+00  0.000000D+00  0.000000D+00
      6  -0.905073D+00 -0.478107D+00  0.541372D+00  0.968338D+00  0.950792D+00
      7   0.000000D+00  0.000000D+00  0.000000D+00  0.000000D+00  0.000000D+00
      8   0.000000D+00  0.000000D+00  0.000000D+00  0.000000D+00  0.000000D+00
      9   0.968338D+00 -0.478107D+00  0.541372D+00 -0.905073D+00 -0.108183D+01
     10   0.000000D+00  0.000000D+00  0.000000D+00  0.000000D+00  0.000000D+00
     11   0.000000D+00  0.000000D+00  0.000000D+00  0.000000D+00  0.000000D+00
     12  -0.541372D+00  0.478107D+00 -0.541372D+00  0.478107D+00  0.570674D+00
                31            32            33 
      1   0.000000D+00  0.000000D+00  0.000000D+00
      2   0.000000D+00  0.000000D+00  0.000000D+00
      3  -0.439631D+00  0.557431D+00  0.557431D+00
      4   0.000000D+00  0.000000D+00  0.000000D+00
      5   0.000000D+00  0.000000D+00  0.000000D+00
      6   0.464322D+00 -0.538560D+00 -0.102503D+01
      7   0.000000D+00  0.000000D+00  0.000000D+00
      8   0.000000D+00  0.000000D+00  0.000000D+00
      9   0.549188D+00 -0.589545D+00  0.104148D+01
     10   0.000000D+00  0.000000D+00  0.000000D+00
     11   0.000000D+00  0.000000D+00  0.000000D+00
     12  -0.573878D+00  0.570674D+00 -0.573878D+00
 Iteration  1 RMS(Cart)=  0.00005382 RMS(Int)=  0.00000000
 Iteration  2 RMS(Cart)=  0.00000000 RMS(Int)=  0.00000000
 Input Coordinates in SymCor: 
                 1             2             3             4             5 
      1   0.113720D+01 -0.614972D+00  0.287980D+01  0.113734D+01  0.293120D+01
      2   0.330826D+01  0.438069D+01  0.438848D+01  0.776058D+00 -0.235895D+00
      3   0.000000D+00  0.000000D+00  0.000000D+00  0.000000D+00  0.000000D+00
                 6             7             8             9            10 
      1  -0.113734D+01 -0.293120D+01 -0.113720D+01  0.614972D+00 -0.287980D+01
      2  -0.776058D+00  0.235895D+00 -0.330826D+01 -0.438069D+01 -0.438848D+01
      3   0.000000D+00  0.000000D+00  0.000000D+00  0.000000D+00  0.000000D+00
 Symmetrized Coordinates in SymCor: 
                 1             2             3             4             5 
      1   0.113720D+01 -0.614972D+00  0.287980D+01  0.113734D+01  0.293120D+01
      2   0.330826D+01  0.438069D+01  0.438848D+01  0.776058D+00 -0.235895D+00
      3   0.000000D+00  0.000000D+00  0.000000D+00  0.000000D+00  0.000000D+00
                 6             7             8             9            10 
      1  -0.113734D+01 -0.293120D+01 -0.113720D+01  0.614972D+00 -0.287980D+01
      2  -0.776058D+00  0.235895D+00 -0.330826D+01 -0.438069D+01 -0.438848D+01
      3   0.000000D+00  0.000000D+00  0.000000D+00  0.000000D+00  0.000000D+00
 Final Coordinates in SymCor: 
                 1             2             3             4             5 
      1   0.113720D+01 -0.614972D+00  0.287980D+01  0.113734D+01  0.293120D+01
      2   0.330826D+01  0.438069D+01  0.438848D+01  0.776058D+00 -0.235895D+00
      3   0.000000D+00  0.000000D+00  0.000000D+00  0.000000D+00  0.000000D+00
                 6             7             8             9            10 
      1  -0.113734D+01 -0.293120D+01 -0.113720D+01  0.614972D+00 -0.287980D+01
      2  -0.776058D+00  0.235895D+00 -0.330826D+01 -0.438069D+01 -0.438848D+01
      3   0.000000D+00  0.000000D+00  0.000000D+00  0.000000D+00  0.000000D+00
 ClnCor:  largest displacement from symmetrization is 3.04D-13 for atom     7.
 Variable       Old X    -DE/DX   Delta X   Delta X   Delta X     New X
                                 (Linear)    (Quad)   (Total)
    R1        2.05437  -0.00002   0.00000  -0.00006  -0.00006   2.05431
    R2        2.05019   0.00002   0.00000   0.00006   0.00006   2.05025
    R3        2.53221  -0.00001   0.00000  -0.00001  -0.00001   2.53221
    R4        2.05973  -0.00004   0.00000  -0.00011  -0.00011   2.05961
    R5        2.75383  -0.00003   0.00000  -0.00006  -0.00006   2.75376
    R6        2.05973  -0.00004   0.00000  -0.00011  -0.00011   2.05961
    R7        2.53221  -0.00001   0.00000  -0.00001  -0.00001   2.53221
    R8        2.05437  -0.00002   0.00000  -0.00006  -0.00006   2.05431
    R9        2.05019   0.00002   0.00000   0.00006   0.00006   2.05025
    A1        2.03751  -0.00001   0.00000  -0.00007  -0.00007   2.03744
    A2        2.11994   0.00002   0.00000   0.00015   0.00015   2.12009
    A3        2.12573  -0.00001   0.00000  -0.00008  -0.00008   2.12565
    A4        2.08444   0.00001   0.00000   0.00003   0.00003   2.08447
    A5        2.16964  -0.00002   0.00000  -0.00012  -0.00012   2.16952
    A6        2.02911   0.00001   0.00000   0.00008   0.00008   2.02920
    A7        2.02911   0.00001   0.00000   0.00008   0.00008   2.02920
    A8        2.16964  -0.00002   0.00000  -0.00012  -0.00012   2.16952
    A9        2.08444   0.00001   0.00000   0.00003   0.00003   2.08447
   A10        2.11994   0.00002   0.00000   0.00015   0.00015   2.12009
   A11        2.12573  -0.00001   0.00000  -0.00008  -0.00008   2.12565
   A12        2.03751  -0.00001   0.00000  -0.00007  -0.00007   2.03744
    D1        3.14159   0.00000   0.00000   0.00000   0.00000   3.14159
    D2        0.00000  -0.00000   0.00000   0.00000   0.00000   0.00000
    D3        0.00000  -0.00000   0.00000  -0.00000   0.00000   0.00000
    D4        3.14159   0.00000   0.00000  -0.00000   0.00000   3.14159
    D5        0.00000   0.00000   0.00000  -0.00000   0.00000   0.00000
    D6        3.14159  -0.00000   0.00000  -0.00000   0.00000   3.14159
    D7        3.14159   0.00000   0.00000  -0.00000   0.00000   3.14159
    D8        0.00000  -0.00000   0.00000  -0.00000   0.00000   0.00000
    D9        0.00000   0.00000   0.00000   0.00000   0.00000   0.00000
   D10        3.14159   0.00000   0.00000   0.00000   0.00000   3.14159
   D11        3.14159  -0.00000   0.00000  -0.00000   0.00000   3.14159
   D12        0.00000  -0.00000   0.00000  -0.00000   0.00000   0.00000
         Item               Value     Threshold  Converged?
 Maximum Force            0.000036     0.000450     YES
 RMS     Force            0.000015     0.000300     YES
 Maximum Displacement     0.000120     0.001800     YES
 RMS     Displacement     0.000054     0.001200     YES
 Predicted change in Energy=-1.522766D-08
 Optimization completed.
    -- Stationary point found.
                           ----------------------------
                           !   Optimized Parameters   !
                           ! (Angstroms and Degrees)  !
 --------------------------                            --------------------------
 ! Name  Definition              Value          Derivative Info.                !
 --------------------------------------------------------------------------------
 ! R1    R(1,2)                  1.0871         -DE/DX =    0.0                 !
 ! R2    R(1,3)                  1.0849         -DE/DX =    0.0                 !
 ! R3    R(1,4)                  1.34           -DE/DX =    0.0                 !
 ! R4    R(4,5)                  1.09           -DE/DX =    0.0                 !
 ! R5    R(4,6)                  1.4573         -DE/DX =    0.0                 !
 ! R6    R(6,7)                  1.09           -DE/DX =    0.0                 !
 ! R7    R(6,8)                  1.34           -DE/DX =    0.0                 !
 ! R8    R(8,9)                  1.0871         -DE/DX =    0.0                 !
 ! R9    R(8,10)                 1.0849         -DE/DX =    0.0                 !
 ! A1    A(2,1,3)              116.7409         -DE/DX =    0.0                 !
 ! A2    A(2,1,4)              121.4638         -DE/DX =    0.0                 !
 ! A3    A(3,1,4)              121.7953         -DE/DX =    0.0                 !
 ! A4    A(1,4,5)              119.4294         -DE/DX =    0.0                 !
 ! A5    A(1,4,6)              124.311          -DE/DX =    0.0                 !
 ! A6    A(5,4,6)              116.2596         -DE/DX =    0.0                 !
 ! A7    A(4,6,7)              116.2596         -DE/DX =    0.0                 !
 ! A8    A(4,6,8)              124.311          -DE/DX =    0.0                 !
 ! A9    A(7,6,8)              119.4294         -DE/DX =    0.0                 !
 ! A10   A(6,8,9)              121.4638         -DE/DX =    0.0                 !
 ! A11   A(6,8,10)             121.7953         -DE/DX =    0.0                 !
 ! A12   A(9,8,10)             116.7409         -DE/DX =    0.0                 !
 ! D1    D(2,1,4,5)            180.0            -DE/DX =    0.0                 !
 ! D2    D(2,1,4,6)              0.0            -DE/DX =    0.0                 !
 ! D3    D(3,1,4,5)              0.0            -DE/DX =    0.0                 !
 ! D4    D(3,1,4,6)            180.0            -DE/DX =    0.0                 !
 ! D5    D(1,4,6,7)              0.0            -DE/DX =    0.0                 !
 ! D6    D(1,4,6,8)            180.0            -DE/DX =    0.0                 !
 ! D7    D(5,4,6,7)            180.0            -DE/DX =    0.0                 !
 ! D8    D(5,4,6,8)              0.0            -DE/DX =    0.0                 !
 ! D9    D(4,6,8,9)              0.0            -DE/DX =    0.0                 !
 ! D10   D(4,6,8,10)           180.0            -DE/DX =    0.0                 !
 ! D11   D(7,6,8,9)            180.0            -DE/DX =    0.0                 !
 ! D12   D(7,6,8,10)             0.0            -DE/DX =    0.0                 !
 --------------------------------------------------------------------------------
 GradGradGradGradGradGradGradGradGradGradGradGradGradGradGradGradGradGrad

 Leave Link  103 at Sat Aug 10 16:33:38 2019, MaxMem=  4294967296 cpu:               9.0 elap:               0.7
 Dipole is zero, so no output in dipole orientation.

 ----------------------------------------------------------------------

 Electric dipole moment (input orientation):
 (Debye = 10**-18 statcoulomb cm , SI units = C m)
                  (au)            (Debye)         (10**-30 SI)
   Tot        0.000000D+00      0.000000D+00      0.000000D+00
   x          0.000000D+00      0.000000D+00      0.000000D+00
   y          0.000000D+00      0.000000D+00      0.000000D+00
   z          0.000000D+00      0.000000D+00      0.000000D+00

 Dipole polarizability, Alpha (input orientation).
 (esu units = cm**3 , SI units = C**2 m**2 J**-1)
 Alpha(0;0):
               (au)            (10**-24 esu)      (10**-40 SI)
   iso        0.445917D+02      0.660781D+01      0.735219D+01
   aniso      0.551905D+02      0.817839D+01      0.909969D+01
   xx         0.410923D+02      0.608925D+01      0.677521D+01
   yx         0.939592D+01      0.139233D+01      0.154918D+01
   yy         0.766377D+02      0.113565D+02      0.126359D+02
   zx         0.000000D+00      0.000000D+00      0.000000D+00
   zy         0.000000D+00      0.000000D+00      0.000000D+00
   zz         0.160452D+02      0.237766D+01      0.264550D+01

 ----------------------------------------------------------------------

 Test job not archived.
 1\1\NSC-N1691\Freq\RB3LYP\6-31G(d,p)\C4H6\X_KJEJO\10-Aug-2019\0\\# fre
 q(hpmodes,intmodes) iop(1/33=3) b3lyp/6-31g(d,p) geom=connectivity iop
 (7/75=-1)\\name\\0,1\C,0.601842,1.750706,0.\H,-0.325442,2.31814,0.\H,1
 .523949,2.322332,0.\C,0.601842,0.410718,0.\H,1.551156,-0.124834,0.\C,-
 0.601842,-0.410718,0.\H,-1.551156,0.124834,0.\C,-0.601842,-1.750706,0.
 \H,0.325442,-2.31814,0.\H,-1.523949,-2.322332,0.\\Version=ES64L-G16Rev
 B.01\State=1-AG\HF=-156.0016628\RMSD=7.245e-09\RMSF=2.683e-05\ZeroPoin
 t=0.0853074\Thermal=0.0899559\Dipole=0.,0.,0.\DipoleDeriv=0.0887606,-0
 .1185166,0.,-0.056435,-0.1081133,0.,0.,0.,-0.301405,-0.0792679,0.07592
 49,0.,0.0344718,0.018264,0.,0.,0.,0.1358242,-0.0567919,-0.0731703,0.,-
 0.0458997,0.0003263,0.,0.,0.,0.130105,0.1361851,0.0882351,0.,-0.014814
 8,0.1039409,0.,0.,0.,-0.0737007,-0.0888858,0.0275269,0.,0.0826777,-0.0
 144178,0.,0.,0.,0.1091765,0.1361851,0.0882351,0.,-0.0148148,0.1039408,
 0.,0.,0.,-0.0737007,-0.0888858,0.0275269,0.,0.0826777,-0.0144178,0.,0.
 ,0.,0.1091765,0.0887606,-0.1185166,0.,-0.056435,-0.1081133,0.,0.,0.,-0
 .301405,-0.0792679,0.0759249,0.,0.0344718,0.018264,0.,0.,0.,0.1358242,
 -0.0567919,-0.0731703,0.,-0.0458997,0.0003262,0.,0.,0.,0.130105\Polar=
 41.0923023,9.3959235,76.6377145,0.,0.,16.0452133\Quadrupole=1.3141844,
 1.208644,-2.5228284,-0.0608765,0.,0.\PG=C02H [SGH(C4H6)]\NImag=0\\0.64
 806029,0.00914639,0.84501561,0.,0.,0.10413996,-0.26542595,0.12346440,0
 .,0.27597444,0.11987560,-0.13090851,0.,-0.13558161,0.13666357,0.,0.,-0
 .03418138,0.,0.,0.02259565,-0.26974163,-0.12839353,0.,-0.01574661,-0.0
 1391455,0.,0.27865374,-0.12383656,-0.13295398,0.,0.01400630,0.01002290
 ,0.,0.13839149,0.13898275,0.,0.,-0.03269790,0.,0.,0.00225448,0.,0.,0.0
 2219216,-0.11606096,0.01426297,0.,0.00227865,0.03002012,0.,0.00399202,
 -0.02971308,0.,0.61641437,0.00349659,-0.53861718,0.,-0.00025114,-0.012
 55314,0.,0.00352032,-0.01211075,0.,-0.03756240,0.84424749,0.,0.,-0.049
 44328,0.,0.,0.00486060,0.,0.,0.00438691,0.,0.,0.13294175,0.00274649,-0
 .00172633,0.,0.00128176,-0.00078606,0.,0.00119019,0.00007023,0.,-0.263
 71476,0.11510280,0.,0.28063163,0.03030869,-0.01351737,0.,-0.00045563,-
 0.00510743,0.,-0.00028338,0.00110159,0.,0.11339196,-0.12085556,0.,-0.1
 2405406,0.12925571,0.,0.,0.00540162,0.,0.,0.01134884,0.,0.,-0.00720676
 ,0.,0.,-0.04152405,0.,0.,0.02706117,0.00460151,-0.01685652,0.,0.001042
 29,0.00227015,0.,0.00093408,0.00298384,0.,-0.22799603,-0.06280563,0.,-
 0.02149116,-0.01599141,0.,0.61641437,-0.03471475,-0.04061124,0.,-0.001
 91491,0.00170723,0.,0.00056138,-0.00448493,0.,-0.06280563,-0.12594387,
 0.,0.01456773,0.00922194,0.,-0.03756240,0.84424749,0.,0.,0.00606673,0.
 ,0.,-0.00785762,0.,0.,0.01263446,0.,0.,-0.06508462,0.,0.,0.00301912,0.
 ,0.,0.13294175,0.00129615,0.00138857,0.,0.00046629,-0.00127470,0.,0.00
 046949,-0.00026665,0.,-0.02149116,0.01456773,0.,-0.00287609,-0.0030215
 2,0.,-0.26371476,0.11510280,0.,0.28063163,-0.00084410,0.00159425,0.,0.
 00070596,-0.00010904,0.,0.00024349,0.00009845,0.,-0.01599141,0.0092219
 4,0.,-0.00302152,-0.00168254,0.,0.11339196,-0.12085556,0.,-0.12405406,
 0.12925571,0.,0.,-0.00129220,0.,0.,0.00024553,0.,0.,-0.00023521,0.,0.,
 0.00301912,0.,0.,0.00318194,0.,0.,-0.04152405,0.,0.,0.02706117,-0.0060
 2498,-0.00124637,0.,0.00030202,-0.00043515,0.,0.00024707,-0.00175036,0
 .,0.00460151,-0.03471475,0.,0.00129615,-0.00084410,0.,-0.11606096,0.00
 349659,0.,0.00274649,0.03030869,0.,0.64806029,-0.00124637,0.01014805,0
 .,0.00002142,0.00000253,0.,-0.00006099,-0.00015217,0.,-0.01685652,-0.0
 4061124,0.,0.00138857,0.00159425,0.,0.01426297,-0.53861718,0.,-0.00172
 633,-0.01351737,0.,0.00914639,0.84501561,0.,0.,0.00200203,0.,0.,0.0001
 6291,0.,0.,-0.00015847,0.,0.,0.00606673,0.,0.,-0.00129220,0.,0.,-0.049
 44328,0.,0.,0.00540162,0.,0.,0.10413996,0.00030202,0.00002142,0.,-0.00
 016884,-0.00009781,0.,-0.00000406,0.00010302,0.,0.00104229,-0.00191491
 ,0.,0.00046629,0.00070596,0.,0.00227865,-0.00025114,0.,0.00128176,-0.0
 0045563,0.,-0.26542595,0.12346440,0.,0.27597444,-0.00043515,0.00000253
 ,0.,-0.00009781,0.00026557,0.,-0.00007600,0.00001633,0.,0.00227015,0.0
 0170723,0.,-0.00127470,-0.00010904,0.,0.03002012,-0.01255314,0.,-0.000
 78606,-0.00510743,0.,0.11987560,-0.13090851,0.,-0.13558161,0.13666357,
 0.,0.,0.00016291,0.,0.,0.00030665,0.,0.,0.00026434,0.,0.,-0.00785762,0
 .,0.,0.00024553,0.,0.,0.00486060,0.,0.,0.01134884,0.,0.,-0.03418138,0.
 ,0.,0.02259565,0.00024707,-0.00006099,0.,-0.00000406,-0.00007600,0.,0.
 00000570,0.00001176,0.,0.00093408,0.00056138,0.,0.00046949,0.00024349,
 0.,0.00399202,0.00352032,0.,0.00119019,-0.00028338,0.,-0.26974163,-0.1
 2839353,0.,-0.01574661,-0.01391455,0.,0.27865374,-0.00175036,-0.000152
 17,0.,0.00010302,0.00001633,0.,0.00001176,-0.00052020,0.,0.00298384,-0
 .00448493,0.,-0.00026665,0.00009845,0.,-0.02971308,-0.01211075,0.,0.00
 007023,0.00110159,0.,-0.12383656,-0.13295398,0.,0.01400630,0.01002290,
 0.,0.13839149,0.13898275,0.,0.,-0.00015847,0.,0.,0.00026434,0.,0.,-0.0
 0143401,0.,0.,0.01263446,0.,0.,-0.00023521,0.,0.,0.00438691,0.,0.,-0.0
 0720676,0.,0.,-0.03269790,0.,0.,0.00225448,0.,0.,0.02219216\\0.0000624
 9,0.00001693,0.,-0.00002094,-0.00000098,0.,-0.00001576,-0.00000765,0.,
 -0.00004630,0.00004887,0.,0.00003083,-0.00001949,0.,0.00004630,-0.0000
 4887,0.,-0.00003083,0.00001949,0.,-0.00006249,-0.00001693,0.,0.0000209
 4,0.00000098,0.,0.00001576,0.00000765,0.\\\@


 IF YOU GET CONFUSED, LOGIC OUT YOUR DILEMMA

           --  PICKER X-RAY CORP.    DIGITAL PRINTER MANUAL CA. 1964
 Job cpu time:       0 days  0 hours  2 minutes 33.5 seconds.
 Elapsed time:       0 days  0 hours  0 minutes 12.7 seconds.
 File lengths (MBytes):  RWF=     10 Int=      0 D2E=      0 Chk=      8 Scr=      1
 Normal termination of Gaussian 16 at Sat Aug 10 16:33:38 2019.
