 Entering Gaussian System, Link 0=/software/sse/easybuild/prefix/software/Gaussian/16.B.01-avx2-nsc1-bdist/g16/g16.orig
 Input=freq.wrap
 Output=freq.log
 Initial command:
 /software/sse/easybuild/prefix/software/Gaussian/16.B.01-avx2-nsc1-bdist/g16/l1.exe "/scratch/local/Gau-145571.inp" -scrdir="/scratch/local/"
 Default is to use a total of  16 processors:
                               16 via shared-memory
                                1 via Linda
 Entering Link 1 = /software/sse/easybuild/prefix/software/Gaussian/16.B.01-avx2-nsc1-bdist/g16/l1.exe PID=    145582.
  
 Copyright (c) 1988-2017, Gaussian, Inc.  All Rights Reserved.
  
 This is part of the Gaussian(R) 16 program.  It is based on
 the Gaussian(R) 09 system (copyright 2009, Gaussian, Inc.),
 the Gaussian(R) 03 system (copyright 2003, Gaussian, Inc.),
 the Gaussian(R) 98 system (copyright 1998, Gaussian, Inc.),
 the Gaussian(R) 94 system (copyright 1995, Gaussian, Inc.),
 the Gaussian 92(TM) system (copyright 1992, Gaussian, Inc.),
 the Gaussian 90(TM) system (copyright 1990, Gaussian, Inc.),
 the Gaussian 88(TM) system (copyright 1988, Gaussian, Inc.),
 the Gaussian 86(TM) system (copyright 1986, Carnegie Mellon
 University), and the Gaussian 82(TM) system (copyright 1983,
 Carnegie Mellon University). Gaussian is a federally registered
 trademark of Gaussian, Inc.
  
 This software contains proprietary and confidential information,
 including trade secrets, belonging to Gaussian, Inc.
  
 This software is provided under written license and may be
 used, copied, transmitted, or stored only in accord with that
 written license.
  
 The following legend is applicable only to US Government
 contracts under FAR:
  
                    RESTRICTED RIGHTS LEGEND
  
 Use, reproduction and disclosure by the US Government is
 subject to restrictions as set forth in subparagraphs (a)
 and (c) of the Commercial Computer Software - Restricted
 Rights clause in FAR 52.227-19.
  
 Gaussian, Inc.
 340 Quinnipiac St., Bldg. 40, Wallingford CT 06492
  
  
 ---------------------------------------------------------------
 Warning -- This program may not be used in any manner that
 competes with the business of Gaussian, Inc. or will provide
 assistance to any competitor of Gaussian, Inc.  The licensee
 of this program is prohibited from giving any competitor of
 Gaussian, Inc. access to this program.  By using this program,
 the user acknowledges that Gaussian, Inc. is engaged in the
 business of creating and licensing software in the field of
 computational chemistry and represents and warrants to the
 licensee that it is not a competitor of Gaussian, Inc. and that
 it will not use this program in any manner prohibited above.
 ---------------------------------------------------------------
  

 Cite this work as:
 Gaussian 16, Revision B.01,
 M. J. Frisch, G. W. Trucks, H. B. Schlegel, G. E. Scuseria, 
 M. A. Robb, J. R. Cheeseman, G. Scalmani, V. Barone, 
 G. A. Petersson, H. Nakatsuji, X. Li, M. Caricato, A. V. Marenich, 
 J. Bloino, B. G. Janesko, R. Gomperts, B. Mennucci, H. P. Hratchian, 
 J. V. Ortiz, A. F. Izmaylov, J. L. Sonnenberg, D. Williams-Young, 
 F. Ding, F. Lipparini, F. Egidi, J. Goings, B. Peng, A. Petrone, 
 T. Henderson, D. Ranasinghe, V. G. Zakrzewski, J. Gao, N. Rega, 
 G. Zheng, W. Liang, M. Hada, M. Ehara, K. Toyota, R. Fukuda, 
 J. Hasegawa, M. Ishida, T. Nakajima, Y. Honda, O. Kitao, H. Nakai, 
 T. Vreven, K. Throssell, J. A. Montgomery, Jr., J. E. Peralta, 
 F. Ogliaro, M. J. Bearpark, J. J. Heyd, E. N. Brothers, K. N. Kudin, 
 V. N. Staroverov, T. A. Keith, R. Kobayashi, J. Normand, 
 K. Raghavachari, A. P. Rendell, J. C. Burant, S. S. Iyengar, 
 J. Tomasi, M. Cossi, J. M. Millam, M. Klene, C. Adamo, R. Cammi, 
 J. W. Ochterski, R. L. Martin, K. Morokuma, O. Farkas, 
 J. B. Foresman, and D. J. Fox, Gaussian, Inc., Wallingford CT, 2016.
 
 ******************************************
 Gaussian 16:  ES64L-G16RevB.01 20-Dec-2017
                31-Aug-2019 
 ******************************************
 %nprocshared=16
 Will use up to   16 processors via shared memory.
 %mem=16GB
 %chk=freq.chk
 ----------------------------------------------------------------------
 # nosymm freq=intmodes b3lyp/6-31g(d,p) geom=connectivity iop(7/75=-1)
 ----------------------------------------------------------------------
 1/10=4,18=20,30=1,38=1,57=2/1,3;
 2/9=110,12=2,15=1,17=6,18=5,40=1/2;
 3/5=1,6=6,7=101,11=2,25=1,30=1,71=2,74=-5,140=1/1,2,3;
 4//1;
 5/5=2,38=5,98=1/2;
 8/6=4,10=90,11=11/1;
 11/6=1,8=1,9=11,15=111,16=1,31=1/1,2,10;
 10/6=1,31=1/2;
 6/7=2,8=2,9=2,10=2,28=1/1;
 7/8=21,10=1,25=1,30=1,75=-1/1,2,3,16;
 1/10=4,18=20,30=1/3;
 99//99;
 ----
 name
 ----
 Symbolic Z-matrix:
 Charge =  0 Multiplicity = 1
 C                     0.05625   1.47352   0.66586 
 H                    -0.01621   0.89117   1.55545 
 C                     0.13821   2.13218  -0.34028 
 H                     0.21068   2.71453  -1.22987 
 

 GradGradGradGradGradGradGradGradGradGradGradGradGradGradGradGradGradGrad
 Berny optimization.
 Initialization pass.
                           ----------------------------
                           !    Initial Parameters    !
                           ! (Angstroms and Degrees)  !
 --------------------------                            --------------------------
 ! Name  Definition              Value          Derivative Info.                !
 --------------------------------------------------------------------------------
 ! R1    R(1,2)                  1.0657         calculate D2E/DX2 analytically  !
 ! R2    R(1,3)                  1.2054         calculate D2E/DX2 analytically  !
 ! R3    R(3,4)                  1.0657         calculate D2E/DX2 analytically  !
 ! A1    L(2,1,3,-1,-1)        180.0            calculate D2E/DX2 analytically  !
 ! A2    L(1,3,4,-1,-1)        180.0            calculate D2E/DX2 analytically  !
 ! A3    L(2,1,3,-2,-2)        180.0            calculate D2E/DX2 analytically  !
 ! A4    L(1,3,4,-2,-2)        180.0            calculate D2E/DX2 analytically  !
 --------------------------------------------------------------------------------
 Trust Radius=3.00D-01 FncErr=1.00D-07 GrdErr=1.00D-07 EigMax=2.50D+02 EigMin=1.00D-04
 Number of steps in this run=      2 maximum allowed number of steps=      2.
 GradGradGradGradGradGradGradGradGradGradGradGradGradGradGradGradGradGrad

                          Input orientation:                          
 ---------------------------------------------------------------------
 Center     Atomic      Atomic             Coordinates (Angstroms)
 Number     Number       Type             X           Y           Z
 ---------------------------------------------------------------------
      1          6           0        0.056253    1.473524    0.665862
      2          1           0       -0.016211    0.891171    1.555449
      3          6           0        0.138213    2.132179   -0.340281
      4          1           0        0.210677    2.714532   -1.229867
 ---------------------------------------------------------------------
                    Distance matrix (angstroms):
                    1          2          3          4
     1  C    0.000000
     2  H    1.065716   0.000000
     3  C    1.205350   2.271066   0.000000
     4  H    2.271066   3.336782   1.065716   0.000000
 Symmetry turned off by external request.
 Stoichiometry    C2H2
 Framework group  D*H[C*(HC.CH)]
 Deg. of freedom     2
 Full point group                 D*H     NOp   8
 Rotational constants (GHZ):           0.0000000          35.2725406          35.2725406
 Standard basis: 6-31G(d,p) (6D, 7F)
    40 basis functions,    70 primitive gaussians,    40 cartesian basis functions
     7 alpha electrons        7 beta electrons
       nuclear repulsion energy        24.7180957888 Hartrees.
 NAtoms=    4 NActive=    4 NUniq=    4 SFac= 1.00D+00 NAtFMM=   60 NAOKFM=F Big=F
 Integral buffers will be    131072 words long.
 Raffenetti 2 integral format.
 Two-electron integral symmetry is turned off.
 One-electron integrals computed using PRISM.
 NBasis=    40 RedAO= T EigKep=  1.03D-03  NBF=    40
 NBsUse=    40 1.00D-06 EigRej= -1.00D+00 NBFU=    40
 ExpMin= 1.61D-01 ExpMax= 3.05D+03 ExpMxC= 4.57D+02 IAcc=3 IRadAn=         5 AccDes= 0.00D+00
 Harris functional with IExCor=  402 and IRadAn=       5 diagonalized for initial guess.
 HarFok:  IExCor=  402 AccDes= 0.00D+00 IRadAn=         5 IDoV= 1 UseB2=F ITyADJ=14
 ICtDFT=  3500011 ScaDFX=  1.000000  1.000000  1.000000  1.000000
 FoFCou: FMM=F IPFlag=           0 FMFlag=      100000 FMFlg1=           0
         NFxFlg=           0 DoJE=T BraDBF=F KetDBF=T FulRan=T
         wScrn=  0.000000 ICntrl=       500 IOpCl=  0 I1Cent=   200000004 NGrid=           0
         NMat0=    1 NMatS0=      1 NMatT0=    0 NMatD0=    1 NMtDS0=    0 NMtDT0=    0
 Symmetry not used in FoFCou.
 Keep R1 ints in memory in canonical form, NReq=14164838.
 Requested convergence on RMS density matrix=1.00D-08 within 128 cycles.
 Requested convergence on MAX density matrix=1.00D-06.
 Requested convergence on             energy=1.00D-06.
 No special actions if energy rises.
 Integral accuracy reduced to 1.0D-05 until final iterations.
 Initial convergence to 1.0D-05 achieved.  Increase integral accuracy.
 SCF Done:  E(RB3LYP) =  -77.3295667189     A.U. after    9 cycles
            NFock=  9  Conv=0.60D-08     -V/T= 2.0102
 DoSCS=F DFT=T ScalE2(SS,OS)=  1.000000  1.000000
 Range of M.O.s used for correlation:     1    40
 NBasis=    40 NAE=     7 NBE=     7 NFC=     0 NFV=     0
 NROrb=     40 NOA=     7 NOB=     7 NVA=    33 NVB=    33

 **** Warning!!: The largest alpha MO coefficient is  0.14763644D+02

 Symmetrizing basis deriv contribution to polar:
 IMax=3 JMax=2 DiffMx= 0.00D+00
 G2DrvN: will do     5 centers at a time, making    1 passes.
 Calling FoFCou, ICntrl=  3107 FMM=F I1Cent=   0 AccDes= 0.00D+00.
 End of G2Drv F.D. properties file   721 does not exist.
 End of G2Drv F.D. properties file   722 does not exist.
 End of G2Drv F.D. properties file   788 does not exist.
          IDoAtm=1111
          Differentiating once with respect to electric field.
                with respect to dipole field.
          Differentiating once with respect to nuclear coordinates.
 Keep R1 ints in memory in canonical form, NReq=14112407.
          There are    15 degrees of freedom in the 1st order CPHF.  IDoFFX=6 NUNeed=     3.
     12 vectors produced by pass  0 Test12= 1.54D-15 6.67D-09 XBig12= 1.20D+01 1.99D+00.
 AX will form    12 AO Fock derivatives at one time.
     12 vectors produced by pass  1 Test12= 1.54D-15 6.67D-09 XBig12= 2.18D+00 5.41D-01.
     12 vectors produced by pass  2 Test12= 1.54D-15 6.67D-09 XBig12= 5.96D-03 2.41D-02.
     12 vectors produced by pass  3 Test12= 1.54D-15 6.67D-09 XBig12= 6.11D-06 9.36D-04.
     12 vectors produced by pass  4 Test12= 1.54D-15 6.67D-09 XBig12= 5.95D-09 2.28D-05.
      5 vectors produced by pass  5 Test12= 1.54D-15 6.67D-09 XBig12= 2.06D-12 5.27D-07.
      2 vectors produced by pass  6 Test12= 1.54D-15 6.67D-09 XBig12= 7.25D-16 1.24D-08.
 InvSVY:  IOpt=1 It=  1 EMax= 8.88D-16
 Solved reduced A of dimension    67 with    12 vectors.
 Isotropic polarizability for W=    0.000000       14.72 Bohr**3.
 End of Minotr F.D. properties file   721 does not exist.
 End of Minotr F.D. properties file   722 does not exist.
 End of Minotr F.D. properties file   788 does not exist.

 **********************************************************************

            Population analysis using the SCF Density.

 **********************************************************************

 Alpha  occ. eigenvalues --  -10.19210 -10.18970  -0.74272  -0.56415  -0.49027
 Alpha  occ. eigenvalues --   -0.28236  -0.28236
 Alpha virt. eigenvalues --    0.05057   0.05057   0.10620   0.14968   0.42605
 Alpha virt. eigenvalues --    0.47071   0.53290   0.53290   0.65423   0.65423
 Alpha virt. eigenvalues --    0.74638   0.81181   1.02263   1.19962   1.37690
 Alpha virt. eigenvalues --    1.37690   1.47715   1.54935   1.54935   1.93198
 Alpha virt. eigenvalues --    1.93198   1.94363   1.94363   2.24996   2.38204
 Alpha virt. eigenvalues --    2.38204   2.73101   3.03081   3.03081   3.34993
 Alpha virt. eigenvalues --    3.82749   4.57298   5.33562
          Condensed to atoms (all electrons):
               1          2          3          4
     1  C    4.813273   0.368514   0.996000  -0.029077
     2  H    0.368514   0.509710  -0.029077   0.002142
     3  C    0.996000  -0.029077   4.813273   0.368515
     4  H   -0.029077   0.002142   0.368515   0.509710
 Mulliken charges:
               1
     1  C   -0.148710
     2  H    0.148710
     3  C   -0.148710
     4  H    0.148710
 Sum of Mulliken charges =  -0.00000
 Mulliken charges with hydrogens summed into heavy atoms:
               1
     1  C   -0.000000
     3  C    0.000000
 APT charges:
               1
     1  C   -0.197163
     2  H    0.197163
     3  C   -0.197163
     4  H    0.197163
 Sum of APT charges =   0.00000
 APT charges with hydrogens summed into heavy atoms:
               1
     1  C   -0.000000
     3  C    0.000000
 Electronic spatial extent (au):  <R**2>=            224.1396
 Charge=             -0.0000 electrons
 Dipole moment (field-independent basis, Debye):
    X=              0.0000    Y=              0.0000    Z=             -0.0000  Tot=              0.0000
 Quadrupole moment (field-independent basis, Debye-Ang):
   XX=            -12.9726   YY=            -11.1543   ZZ=             -8.6916
   XY=              0.2298   XZ=             -0.3511   YZ=             -2.8213
 Traceless Quadrupole moment (field-independent basis, Debye-Ang):
   XX=             -2.0331   YY=             -0.2148   ZZ=              2.2480
   XY=              0.2298   XZ=             -0.3511   YZ=             -2.8213
 Octapole moment (field-independent basis, Debye-Ang**2):
  XXX=             -3.7841  YYY=            -60.3288  ZZZ=             -4.2447  XYY=             -0.2559
  XXY=            -23.3430  XXZ=             -2.1801  XZZ=             -0.9594  YZZ=            -16.5881
  YYZ=            -11.9885  XYZ=             -0.8698
 Hexadecapole moment (field-independent basis, Debye-Ang**3):
 XXXX=            -14.2357 YYYY=           -242.1373 ZZZZ=            -35.8838 XXXY=             -7.6199
 XXXZ=              0.6026 YYYX=             -4.2250 YYYZ=            -29.9659 ZZZX=              0.0531
 ZZZY=             -3.9094 XXYY=            -48.7127 XXZZ=             -9.9018 YYZZ=            -39.6092
 XXYZ=             -0.6851 YYXZ=             -2.0777 ZZXY=             -1.5978
 N-N= 2.471809578885D+01 E-N=-2.284582209364D+02  KE= 7.654915854536D+01
  Exact polarizability:   8.091   0.749  14.017  -1.144  -9.194  22.042
 Approx polarizability:  10.163   1.550  22.423  -2.367 -19.023  39.028
 Calling FoFJK, ICntrl=    100127 FMM=F ISym2X=0 I1Cent= 0 IOpClX= 0 NMat=1 NMatS=1 NMatT=0.
 Full mass-weighted force constant matrix:
 Low frequencies ---   -0.0010   -0.0010    0.0000    4.1659    5.6282  563.1018
 Low frequencies ---  563.2322  773.2976  773.4149
 Diagonal vibrational polarizability:
        3.5659936       2.5706779       1.2218096
 Harmonic frequencies (cm**-1), IR intensities (KM/Mole), Raman scattering
 activities (A**4/AMU), depolarization ratios for plane and unpolarized
 incident light, reduced masses (AMU), force constants (mDyne/A),
 and normal coordinates:
                      1                      2                      3
                      A                      A                      A
 Frequencies --    563.1018               563.2322               773.2976
 Red. masses --      1.5715                 1.5715                 1.0848
 Frc consts  --      0.2936                 0.2937                 0.3822
 IR Inten    --      0.0000                 0.0000                79.6046
  Atom  AN      X      Y      Z        X      Y      Z        X      Y      Z
     1   6    -0.09  -0.11  -0.08    -0.14   0.08   0.04    -0.03  -0.04  -0.03
     2   1     0.37   0.47   0.34     0.58  -0.33  -0.17     0.38   0.48   0.35
     3   6     0.09   0.11   0.08     0.14  -0.08  -0.04    -0.03  -0.04  -0.03
     4   1    -0.37  -0.47  -0.34    -0.58   0.33   0.17     0.38   0.48   0.35
                      4                      5                      6
                      A                      A                      A
 Frequencies --    773.4149              2085.9280              3436.0543
 Red. masses --      1.0848                 3.8170                 1.0848
 Frc consts  --      0.3823                 9.7851                 7.5462
 IR Inten    --     79.6045                 0.0000                85.4227
  Atom  AN      X      Y      Z        X      Y      Z        X      Y      Z
     1   6    -0.05   0.03   0.01    -0.02  -0.20   0.30     0.00   0.03  -0.05
     2   1     0.59  -0.34  -0.17    -0.04  -0.33   0.51    -0.05  -0.39   0.59
     3   6    -0.05   0.03   0.01     0.02   0.20  -0.30     0.00   0.03  -0.05
     4   1     0.59  -0.34  -0.17     0.04   0.33  -0.51    -0.05  -0.39   0.59
                      7
                      A
 Frequencies --   3535.6298
 Red. masses --      1.2291
 Frc consts  --      9.0528
 IR Inten    --      0.0000
  Atom  AN      X      Y      Z
     1   6     0.01   0.05  -0.08
     2   1    -0.05  -0.38   0.58
     3   6    -0.01  -0.05   0.08
     4   1     0.05   0.38  -0.58

 -------------------
 - Thermochemistry -
 -------------------
 Temperature   298.150 Kelvin.  Pressure   1.00000 Atm.
 Atom     1 has atomic number  6 and mass  12.00000
 Atom     2 has atomic number  1 and mass   1.00783
 Atom     3 has atomic number  6 and mass  12.00000
 Atom     4 has atomic number  1 and mass   1.00783
 Molecular mass:    26.01565 amu.
 Principal axes and moments of inertia in atomic units:
                           1         2         3
     Eigenvalues --    -0.00000  51.16561  51.16561
           X           -0.06800   0.10307   0.99235
           Y           -0.54644   0.82834  -0.12348
           Z            0.83473   0.55066   0.00000
 This molecule is a prolate symmetric top.
 Rotational symmetry number  2.
 Rotational temperature (Kelvin)      1.69282
 Rotational constant (GHZ):          35.272541
 Zero-point vibrational energy      70164.9 (Joules/Mol)
                                   16.76982 (Kcal/Mol)
 Warning -- explicit consideration of   2 degrees of freedom as
           vibrations may cause significant error
 Vibrational temperatures:    810.18   810.37  1112.60  1112.77  3001.19
          (Kelvin)           4943.72  5086.98
 
 Zero-point correction=                           0.026724 (Hartree/Particle)
 Thermal correction to Energy=                    0.029621
 Thermal correction to Enthalpy=                  0.030565
 Thermal correction to Gibbs Free Energy=         0.007718
 Sum of electronic and zero-point Energies=            -77.302842
 Sum of electronic and thermal Energies=               -77.299946
 Sum of electronic and thermal Enthalpies=             -77.299002
 Sum of electronic and thermal Free Energies=          -77.321849
 
                     E (Thermal)             CV                S
                      KCal/Mol        Cal/Mol-Kelvin    Cal/Mol-Kelvin
 Total                   18.587              8.590             48.087
 Electronic               0.000              0.000              0.000
 Translational            0.889              2.981             35.704
 Rotational               0.592              1.987             10.886
 Vibrational             17.106              3.622              1.496
 Vibration     1          0.919              1.111              0.518
 Vibration     2          0.919              1.111              0.517
                       Q            Log10(Q)             Ln(Q)
 Total Bot       0.281930D-03         -3.549858         -8.173850
 Total V=0       0.552719D+09          8.742505         20.130361
 Vib (Bot)       0.613819D-12        -12.211959        -28.119076
 Vib (Bot)    1  0.275176D+00         -0.560389         -1.290343
 Vib (Bot)    2  0.275078D+00         -0.560545         -1.290702
 Vib (V=0)       0.120338D+01          0.080403          0.185136
 Vib (V=0)    1  0.107072D+01          0.029676          0.068332
 Vib (V=0)    2  0.107067D+01          0.029657          0.068287
 Electronic      0.100000D+01          0.000000          0.000000
 Translational   0.521562D+07          6.717306         15.467168
 Rotational      0.880634D+02          1.944795          4.478057
                           ----------------------------
                           ! Normal Mode     1        !
 --------------------------                            --------------------------
 ! Name  Definition              Value          Relative Weight (%)             !
 --------------------------------------------------------------------------------
 ! R1    R(1,2)                  0.0                     0.0                    !
 ! R2    R(1,3)                  0.0                     0.0                    !
 ! R3    R(3,4)                  0.0                     0.0                    !
 ! A1    L(2,1,3,-1,-1)         -0.4766                 27.7                    !
 ! A2    L(1,3,4,-1,-1)          0.4766                 27.7                    !
 ! A3    L(2,1,3,-2,-2)          0.3828                 22.3                    !
 ! A4    L(1,3,4,-2,-2)         -0.3828                 22.3                    !
 --------------------------------------------------------------------------------
                           ----------------------------
                           ! Normal Mode     2        !
 --------------------------                            --------------------------
 ! Name  Definition              Value          Relative Weight (%)             !
 --------------------------------------------------------------------------------
 ! R1    R(1,2)                  0.0                     0.0                    !
 ! R2    R(1,3)                  0.0                     0.0                    !
 ! R3    R(3,4)                  0.0                     0.0                    !
 ! A1    L(2,1,3,-1,-1)          0.3004                 17.6                    !
 ! A2    L(1,3,4,-1,-1)         -0.3004                 17.6                    !
 ! A3    L(2,1,3,-2,-2)          0.5513                 32.4                    !
 ! A4    L(1,3,4,-2,-2)         -0.5513                 32.4                    !
 --------------------------------------------------------------------------------
                           ----------------------------
                           ! Normal Mode     3        !
 --------------------------                            --------------------------
 ! Name  Definition              Value          Relative Weight (%)             !
 --------------------------------------------------------------------------------
 ! R1    R(1,2)                  0.0                     0.0                    !
 ! R2    R(1,3)                  0.0                     0.0                    !
 ! R3    R(3,4)                  0.0                     0.0                    !
 ! A1    L(2,1,3,-1,-1)         -0.3211                 27.7                    !
 ! A2    L(1,3,4,-1,-1)         -0.3211                 27.7                    !
 ! A3    L(2,1,3,-2,-2)          0.2592                 22.3                    !
 ! A4    L(1,3,4,-2,-2)          0.2592                 22.3                    !
 --------------------------------------------------------------------------------
                           ----------------------------
                           ! Normal Mode     4        !
 --------------------------                            --------------------------
 ! Name  Definition              Value          Relative Weight (%)             !
 --------------------------------------------------------------------------------
 ! R1    R(1,2)                  0.0                     0.0                    !
 ! R2    R(1,3)                  0.0                     0.0                    !
 ! R3    R(3,4)                  0.0                     0.0                    !
 ! A1    L(2,1,3,-1,-1)          0.2035                 17.7                    !
 ! A2    L(1,3,4,-1,-1)          0.2035                 17.7                    !
 ! A3    L(2,1,3,-2,-2)          0.3713                 32.3                    !
 ! A4    L(1,3,4,-2,-2)          0.3713                 32.3                    !
 --------------------------------------------------------------------------------
                           ----------------------------
                           ! Normal Mode     5        !
 --------------------------                            --------------------------
 ! Name  Definition              Value          Relative Weight (%)             !
 --------------------------------------------------------------------------------
 ! R1    R(1,2)                  0.2526                 20.7                    !
 ! R2    R(1,3)                  0.7149                 58.6                    !
 ! R3    R(3,4)                  0.2526                 20.7                    !
 ! A1    L(2,1,3,-1,-1)          0.0                     0.0                    !
 ! A2    L(1,3,4,-1,-1)          0.0                     0.0                    !
 ! A3    L(2,1,3,-2,-2)          0.0                     0.0                    !
 ! A4    L(1,3,4,-2,-2)          0.0                     0.0                    !
 --------------------------------------------------------------------------------
                           ----------------------------
                           ! Normal Mode     6        !
 --------------------------                            --------------------------
 ! Name  Definition              Value          Relative Weight (%)             !
 --------------------------------------------------------------------------------
 ! R1    R(1,2)                  0.7638                 50.0                    !
 ! R2    R(1,3)                  0.0                     0.0                    !
 ! R3    R(3,4)                 -0.7638                 50.0                    !
 ! A1    L(2,1,3,-1,-1)          0.0                     0.0                    !
 ! A2    L(1,3,4,-1,-1)          0.0                     0.0                    !
 ! A3    L(2,1,3,-2,-2)          0.0                     0.0                    !
 ! A4    L(1,3,4,-2,-2)          0.0                     0.0                    !
 --------------------------------------------------------------------------------
                           ----------------------------
                           ! Normal Mode     7        !
 --------------------------                            --------------------------
 ! Name  Definition              Value          Relative Weight (%)             !
 --------------------------------------------------------------------------------
 ! R1    R(1,2)                  0.8003                 44.4                    !
 ! R2    R(1,3)                 -0.2007                 11.1                    !
 ! R3    R(3,4)                  0.8003                 44.4                    !
 ! A1    L(2,1,3,-1,-1)          0.0                     0.0                    !
 ! A2    L(1,3,4,-1,-1)          0.0                     0.0                    !
 ! A3    L(2,1,3,-2,-2)          0.0                     0.0                    !
 ! A4    L(1,3,4,-2,-2)          0.0                     0.0                    !
 --------------------------------------------------------------------------------
 Max01P=      4 Av01P=    3.43 Stan. Dev.=    0.79
 Max05P=      4 Av05P=    3.43 Stan. Dev.=    0.79
 Max10P=      4 Av10P=    3.43 Stan. Dev.=    0.79
 MaxNDP=      7 AvNDP=    7.00 Stan. Dev.=    0.00
 -------------------------------------------------------------------
 Center     Atomic                   Forces (Hartrees/Bohr)
 Number     Number              X              Y              Z
 -------------------------------------------------------------------
      1        6           0.000000188    0.000003567   -0.000005044
      2        1           0.000000600    0.000003855   -0.000005995
      3        6          -0.000000186   -0.000003548    0.000005015
      4        1          -0.000000602   -0.000003875    0.000006025
 -------------------------------------------------------------------
 Cartesian Forces:  Max     0.000006025 RMS     0.000003860
 FormGI is forming the generalized inverse of G from B-inverse, IUseBI=4.

 GradGradGradGradGradGradGradGradGradGradGradGradGradGradGradGradGradGrad
 Berny optimization.
 Internal  Forces:  Max     0.000013325 RMS     0.000006330
 Search for a local minimum.
 Step number   1 out of a maximum of    2
 All quantities printed in internal units (Hartrees-Bohrs-Radians)
 Second derivative matrix not updated -- analytic derivatives used.
 The second derivative matrix:
                          R1        R2        R3        A1        A2
           R1           0.41554
           R2          -0.00527   1.13331
           R3           0.00013  -0.00527   0.41554
           A1          -0.00001   0.00000   0.00000   0.05743
           A2          -0.00000  -0.00000   0.00001   0.02767   0.05743
           A3          -0.00000   0.00000   0.00000   0.00215   0.00104
           A4          -0.00000  -0.00000   0.00000   0.00104   0.00215
                          A3        A4
           A3           0.04047
           A4           0.01950   0.04047
 ITU=  0
     Eigenvalues ---    0.02084   0.02990   0.05958   0.08550   0.41541
     Eigenvalues ---    0.41560   1.13339
 Angle between quadratic step and forces=  34.61 degrees.
 Linear search not attempted -- first point.
 Iteration  1 RMS(Cart)=  0.00001320 RMS(Int)=  0.00000001
 Iteration  2 RMS(Cart)=  0.00000000 RMS(Int)=  0.00000001
 Variable       Old X    -DE/DX   Delta X   Delta X   Delta X     New X
                                 (Linear)    (Quad)   (Total)
    R1        2.01391  -0.00001   0.00000  -0.00002  -0.00002   2.01389
    R2        2.27778  -0.00001   0.00000  -0.00001  -0.00001   2.27777
    R3        2.01391  -0.00001   0.00000  -0.00002  -0.00002   2.01389
    A1        3.14159   0.00000   0.00000   0.00001   0.00001   3.14160
    A2        3.14159  -0.00000   0.00000  -0.00001  -0.00001   3.14159
    A3        3.14159   0.00000   0.00000   0.00001   0.00001   3.14160
    A4        3.14159  -0.00000   0.00000  -0.00001  -0.00001   3.14159
         Item               Value     Threshold  Converged?
 Maximum Force            0.000013     0.000450     YES
 RMS     Force            0.000006     0.000300     YES
 Maximum Displacement     0.000020     0.001800     YES
 RMS     Displacement     0.000013     0.001200     YES
 Predicted change in Energy=-2.060119D-10
 Optimization completed.
    -- Stationary point found.
                           ----------------------------
                           !   Optimized Parameters   !
                           ! (Angstroms and Degrees)  !
 --------------------------                            --------------------------
 ! Name  Definition              Value          Derivative Info.                !
 --------------------------------------------------------------------------------
 ! R1    R(1,2)                  1.0657         -DE/DX =    0.0                 !
 ! R2    R(1,3)                  1.2054         -DE/DX =    0.0                 !
 ! R3    R(3,4)                  1.0657         -DE/DX =    0.0                 !
 ! A1    L(2,1,3,-1,-1)        180.0            -DE/DX =    0.0                 !
 ! A2    L(1,3,4,-1,-1)        180.0            -DE/DX =    0.0                 !
 ! A3    L(2,1,3,-2,-2)        180.0            -DE/DX =    0.0                 !
 ! A4    L(1,3,4,-2,-2)        180.0            -DE/DX =    0.0                 !
 --------------------------------------------------------------------------------
 GradGradGradGradGradGradGradGradGradGradGradGradGradGradGradGradGradGrad


 ----------------------------------------------------------------------

 Electric dipole moment (input orientation):
 (Debye = 10**-18 statcoulomb cm , SI units = C m)
                  (au)            (Debye)         (10**-30 SI)
   Tot        0.000000D+00      0.000000D+00      0.000000D+00
   x          0.000000D+00      0.000000D+00      0.000000D+00
   y          0.000000D+00      0.000000D+00      0.000000D+00
   z          0.000000D+00      0.000000D+00      0.000000D+00

 Dipole polarizability, Alpha (input orientation).
 (esu units = cm**3 , SI units = C**2 m**2 J**-1)
 Alpha(0;0):
               (au)            (10**-24 esu)      (10**-40 SI)
   iso        0.147168D+02      0.218081D+01      0.242647D+01
   aniso      0.201557D+02      0.298676D+01      0.332322D+01
   xx         0.809144D+01      0.119903D+01      0.133410D+01
   yx         0.748910D+00      0.110977D+00      0.123479D+00
   yy         0.140167D+02      0.207707D+01      0.231105D+01
   zx        -0.114402D+01     -0.169526D+00     -0.188623D+00
   zy        -0.919368D+01     -0.136236D+01     -0.151583D+01
   zz         0.220422D+02      0.326632D+01      0.363428D+01

 ----------------------------------------------------------------------

 Dipole orientation:
     6          0.13218926         -3.01523760          0.48911744
     1          0.11959839         -3.02287934         -1.52474007
     6          0.14642982         -3.00659464          2.76683792
     1          0.15902067         -2.99895291          4.78069541

 Electric dipole moment (dipole orientation):
 (Debye = 10**-18 statcoulomb cm , SI units = C m)
                  (au)            (Debye)         (10**-30 SI)
   Tot        0.000000D+00      0.000000D+00      0.000000D+00
   x          0.000000D+00      0.000000D+00      0.000000D+00
   y          0.000000D+00      0.000000D+00      0.000000D+00
   z          0.000000D+00      0.000000D+00      0.000000D+00

 Dipole polarizability, Alpha (dipole orientation).
 (esu units = cm**3 , SI units = C**2 m**2 J**-1)
 Alpha(0;0):
               (au)            (10**-24 esu)      (10**-40 SI)
   iso        0.147168D+02      0.218081D+01      0.242647D+01
   aniso      0.201557D+02      0.298676D+01      0.332322D+01
   xx         0.799904D+01      0.118534D+01      0.131886D+01
   yx         0.480954D-03      0.712700D-04      0.792986D-04
   yy         0.799854D+01      0.118526D+01      0.131878D+01
   zx         0.126023D+00      0.186746D-01      0.207783D-01
   zy         0.764712D-01      0.113319D-01      0.126084D-01
   zz         0.281529D+02      0.417182D+01      0.464178D+01

 ----------------------------------------------------------------------

 Test job not archived.
 1\1\NSC-N184\Freq\RB3LYP\6-31G(d,p)\C2H2\X_KJEJO\31-Aug-2019\0\\# nosy
 mm freq=intmodes b3lyp/6-31g(d,p) geom=connectivity iop(7/75=-1)\\name
 \\0,1\C,0.05625348,1.47352377,0.66586246\H,-0.01621108,0.89117054,1.55
 544899\C,0.13821261,2.13217906,-0.34028094\H,0.21067716,2.71453229,-1.
 22986746\\Version=ES64L-G16RevB.01\HF=-77.3295667\RMSD=5.958e-09\RMSF=
 3.860e-06\ZeroPoint=0.0267244\Thermal=0.029621\Dipole=0.,0.0000003,-0.
 0000005\DipoleDeriv=-0.1948642,-0.0002605,0.000398,-0.0002599,-0.19692
 04,0.0031904,0.000397,0.00319,-0.1997049,0.1948639,0.0002606,-0.000398
 ,0.0002599,0.1969202,-0.0031906,-0.000397,-0.0031901,0.1997049,-0.1948
 635,-0.0002606,0.000398,-0.00026,-0.1969199,0.0031908,0.000397,0.00319
 03,-0.1997048,0.1948638,0.0002606,-0.000398,0.0002599,0.1969201,-0.003
 1906,-0.000397,-0.0031902,0.1997049\Polar=8.0914405,0.7489104,14.01674
 93,-1.144019,-9.1936771,22.0422474\Quadrupole=-1.5115795,-0.1597198,1.
 6712993,0.1708628,-0.2610051,-2.0975393\PG=D*H [C*(H1C1.C1H1)]\NImag=0
 \\0.04575610,0.05650312,0.49278697,-0.08631451,-0.69362477,1.09829982,
 -0.02255893,-0.01486444,0.02271276,0.01605880,-0.01486449,-0.14017115,
 0.18249926,0.01491027,0.13403349,0.02271283,0.18249923,-0.29949873,-0.
 02278279,-0.18306168,0.29385204,-0.02288793,-0.04185204,0.06392769,-0.
 00030923,0.00021342,-0.00032601,0.04575610,-0.04185204,-0.35399498,0.5
 1374520,0.00021336,0.00137917,-0.00261968,0.05650311,0.49278696,0.0639
 2769,0.51374520,-0.80246710,-0.00032594,-0.00261971,0.00366603,-0.0863
 1450,-0.69362475,1.09829979,-0.00030924,0.00021336,-0.00032593,0.00680
 936,-0.00025919,0.00039597,-0.02255893,-0.01486443,0.02271275,0.016058
 81,0.00021342,0.00137916,-0.00261970,-0.00025919,0.00475848,0.00318213
 ,-0.01486449,-0.14017115,0.18249925,0.01491027,0.13403350,-0.00032601,
 -0.00261967,0.00366601,0.00039597,0.00318213,0.00198066,0.02271283,0.1
 8249922,-0.29949872,-0.02278279,-0.18306168,0.29385205\\-0.00000019,-0
 .00000357,0.00000504,-0.00000060,-0.00000386,0.00000600,0.00000019,0.0
 0000355,-0.00000501,0.00000060,0.00000387,-0.00000602\\\@


 WE STILL HAVE JUDGEMENT HERE,
 THAT WE TEACH BUT BLOODY INSTRUCTIONS,
 WHICH, BEING TAUGHT,
 RETURN TO PLAGUE THE INVENTOR.
           MACBETH ACT I, SCENE VII
 Job cpu time:       0 days  0 hours  0 minutes 39.6 seconds.
 Elapsed time:       0 days  0 hours  0 minutes  3.0 seconds.
 File lengths (MBytes):  RWF=      6 Int=      0 D2E=      0 Chk=      8 Scr=      1
 Normal termination of Gaussian 16 at Sat Aug 31 14:20:12 2019.
