name                                                                    
Freq      RB3LYP                                                      6-31G(d,p)          
Number of atoms                            I                4
Info1-9                                    I   N=           9
          18          18           0           0           0         101
           6          18        -502
Full Title                                 C   N=           1
name        
Route                                      C   N=           6
# nosymm freq=intmodes b3lyp/6-31g(d,p) geom=connectivity io
p(7/75=-1)  
Charge                                     I                0
Multiplicity                               I                1
Number of electrons                        I               14
Number of alpha electrons                  I                7
Number of beta electrons                   I                7
Number of basis functions                  I               40
Number of independent functions            I               40
Number of point charges in /Mol/           I                0
Number of translation vectors              I                0
Atomic numbers                             I   N=           4
           6           1           6           1
Nuclear charges                            R   N=           4
  6.00000000E+00  1.00000000E+00  6.00000000E+00  1.00000000E+00
Current cartesian coordinates              R   N=          12
  1.06303671E-01  2.78455636E+00  1.25829769E+00 -3.06345014E-02  1.68406825E+00
  2.93937259E+00  2.61183980E-01  4.02923447E+00 -6.43037782E-01  3.98122133E-01
  5.12972258E+00 -2.32411267E+00
Number of symbols in /Mol/                 I                0
Force Field                                I                0
Atom Types                                 C   N=           4
                                                
Int Atom Types                             I   N=           4
           0           0           0           0
MM charges                                 R   N=           4
  0.00000000E+00  0.00000000E+00  0.00000000E+00  0.00000000E+00
Integer atomic weights                     I   N=           4
          12           1          12           1
Real atomic weights                        R   N=           4
  1.20000000E+01  1.00782504E+00  1.20000000E+01  1.00782504E+00
Atom fragment info                         I   N=           4
           0           0           0           0
Atom residue num                           I   N=           4
           0           0           0           0
Nuclear spins                              I   N=           4
           0           1           0           1
Nuclear ZEff                               R   N=           4
 -3.60000000E+00 -1.00000000E+00 -3.60000000E+00 -1.00000000E+00
Nuclear ZNuc                               R   N=           4
  6.00000000E+00  1.00000000E+00  6.00000000E+00  1.00000000E+00
Nuclear QMom                               R   N=           4
  0.00000000E+00  0.00000000E+00  0.00000000E+00  0.00000000E+00
Nuclear GFac                               R   N=           4
  0.00000000E+00  2.79284600E+00  0.00000000E+00  2.79284600E+00
MicOpt                                     I   N=           4
          -1          -1          -1          -1
Number of residues                         I                0
Number of secondary structures             I                0
Redundant internal dimensions              I   N=           4
           7           3           4           0
Redundant internal coordinate indices      I   N=          28
           1           2           0           0           1           3
           0           0           3           4           0           0
           2           1           3          -3           1           3
           4          -3           2           1           3          -7
           1           3           4          -7
Redundant internal coordinates             R   N=           7
  2.01391137E+00  2.27778139E+00  2.01391135E+00  3.14159263E+00  3.14159267E+00
  3.14159265E+00  3.14159264E+00
ZRed-IntVec                                I   N=           7
           0           0           0           0           0           0
           0
ZRed-FPVec                                 R   N=           7
  0.00000000E+00  0.00000000E+00  0.00000000E+00  0.00000000E+00  0.00000000E+00
  0.00000000E+00  0.00000000E+00
ZRed-Constraint1                           R   N=           7
  2.01391137E+00  2.27778139E+00  2.01391135E+00  3.14159263E+00  3.14159267E+00
  3.14159265E+00  3.14159264E+00
ZRed-Constraint2                           R   N=           7
  0.00000000E+00  0.00000000E+00  0.00000000E+00  0.00000000E+00  0.00000000E+00
  0.00000000E+00  0.00000000E+00
SymInf integers                            I   N=          26
           2           8           1           1           1          -1
           1          -1          -1          -1           1           1
          -1          -1          -1           1           1           1
          -1           1           1           1          -1          -1
          -1          -1
RotTr to input orientation                 R   N=          12
  9.97480027E-01 -2.02514765E-02  6.79961242E-02 -2.02514765E-02  8.37251295E-01
  5.46443178E-01 -6.79961242E-02 -5.46443178E-01  8.34731322E-01  1.83743824E-01
  3.40689542E+00  3.07629953E-01
Number of contracted shells                I               14
Number of primitive shells                 I               32
Pure/Cartesian d shells                    I                1
Pure/Cartesian f shells                    I                0
Highest angular momentum                   I                2
Largest degree of contraction              I                6
Shell types                                I   N=          14
           0          -1          -1           2           0           0
           1           0          -1          -1           2           0
           0           1
Number of primitives per shell             I   N=          14
           6           3           1           1           3           1
           1           6           3           1           1           3
           1           1
Shell to atom map                          I   N=          14
           1           1           1           1           2           2
           2           3           3           3           3           4
           4           4
Primitive exponents                        R   N=          32
  3.04752488E+03  4.57369518E+02  1.03948685E+02  2.92101553E+01  9.28666296E+00
  3.16392696E+00  7.86827235E+00  1.88128854E+00  5.44249258E-01  1.68714478E-01
  8.00000000E-01  1.87311370E+01  2.82539436E+00  6.40121692E-01  1.61277759E-01
  1.10000000E+00  3.04752488E+03  4.57369518E+02  1.03948685E+02  2.92101553E+01
  9.28666296E+00  3.16392696E+00  7.86827235E+00  1.88128854E+00  5.44249258E-01
  1.68714478E-01  8.00000000E-01  1.87311370E+01  2.82539436E+00  6.40121692E-01
  1.61277759E-01  1.10000000E+00
Contraction coefficients                   R   N=          32
  1.83473713E-03  1.40373228E-02  6.88426223E-02  2.32184443E-01  4.67941348E-01
  3.62311985E-01 -1.19332420E-01 -1.60854152E-01  1.14345644E+00  1.00000000E+00
  1.00000000E+00  3.34946043E-02  2.34726953E-01  8.13757326E-01  1.00000000E+00
  1.00000000E+00  1.83473713E-03  1.40373228E-02  6.88426223E-02  2.32184443E-01
  4.67941348E-01  3.62311985E-01 -1.19332420E-01 -1.60854152E-01  1.14345644E+00
  1.00000000E+00  1.00000000E+00  3.34946043E-02  2.34726953E-01  8.13757326E-01
  1.00000000E+00  1.00000000E+00
P(S=P) Contraction coefficients            R   N=          32
  0.00000000E+00  0.00000000E+00  0.00000000E+00  0.00000000E+00  0.00000000E+00
  0.00000000E+00  6.89990666E-02  3.16423961E-01  7.44308291E-01  1.00000000E+00
  0.00000000E+00  0.00000000E+00  0.00000000E+00  0.00000000E+00  0.00000000E+00
  0.00000000E+00  0.00000000E+00  0.00000000E+00  0.00000000E+00  0.00000000E+00
  0.00000000E+00  0.00000000E+00  6.89990666E-02  3.16423961E-01  7.44308291E-01
  1.00000000E+00  0.00000000E+00  0.00000000E+00  0.00000000E+00  0.00000000E+00
  0.00000000E+00  0.00000000E+00
Coordinates of each shell                  R   N=          42
  1.06303671E-01  2.78455636E+00  1.25829769E+00  1.06303671E-01  2.78455636E+00
  1.25829769E+00  1.06303671E-01  2.78455636E+00  1.25829769E+00  1.06303671E-01
  2.78455636E+00  1.25829769E+00 -3.06345014E-02  1.68406825E+00  2.93937259E+00
 -3.06345014E-02  1.68406825E+00  2.93937259E+00 -3.06345014E-02  1.68406825E+00
  2.93937259E+00  2.61183980E-01  4.02923447E+00 -6.43037782E-01  2.61183980E-01
  4.02923447E+00 -6.43037782E-01  2.61183980E-01  4.02923447E+00 -6.43037782E-01
  2.61183980E-01  4.02923447E+00 -6.43037782E-01  3.98122133E-01  5.12972258E+00
 -2.32411267E+00  3.98122133E-01  5.12972258E+00 -2.32411267E+00  3.98122133E-01
  5.12972258E+00 -2.32411267E+00
Num ILSW                                   I              100
ILSW                                       I   N=         100
           0           1           0           0           2           0
           0           0           0           0         402          -1
           5           0           0           0           2           0
           0           0           1           0           1           0
           1           1           0           0           0           0
           0           0      100000           0          -1           0
           0           0           0           0           0           0
           0           0           0           1           0           0
           0 -2000000000           1           0           0           0
           0           0           4          52           0           0
           0           0           5           0           0           0
           0           0           0           0           0           1
           0           0           0           0           0           0
           0           0           0           0           0           0
           0           0           0           0           0           0
           0           0           0           0           0           0
           0           0           0           0
Num RLSW                                   I               52
RLSW                                       R   N=          52
  8.00000000E-01  7.20000000E-01  1.00000000E+00  8.10000000E-01  2.00000000E-01
  0.00000000E+00  0.00000000E+00  1.00000000E+00  0.00000000E+00  0.00000000E+00
  0.00000000E+00  0.00000000E+00  1.00000000E+00  0.00000000E+00  0.00000000E+00
  0.00000000E+00  0.00000000E+00  1.00000000E+00  0.00000000E+00  0.00000000E+00
  0.00000000E+00  0.00000000E+00  1.00000000E+00  0.00000000E+00  0.00000000E+00
  0.00000000E+00  0.00000000E+00  1.00000000E+00  0.00000000E+00  0.00000000E+00
  0.00000000E+00  0.00000000E+00  1.00000000E+00  0.00000000E+00  0.00000000E+00
  0.00000000E+00  0.00000000E+00  0.00000000E+00  1.00000000E+00  1.00000000E+00
  0.00000000E+00  1.00000000E+00  0.00000000E+00  0.00000000E+00  0.00000000E+00
  0.00000000E+00  0.00000000E+00  0.00000000E+00  0.00000000E+00  0.00000000E+00
  0.00000000E+00  0.00000000E+00
MxBond                                     I                2
NBond                                      I   N=           4
           2           1           2           1
IBond                                      I   N=           8
           2           3           1           0           1           4
           3           0
RBond                                      R   N=           8
  1.00000000E+00  3.00000000E+00  1.00000000E+00  0.00000000E+00  3.00000000E+00
  1.00000000E+00  1.00000000E+00  0.00000000E+00
Virial Ratio                               R      2.010194862861499E+00
SCF Energy                                 R     -7.732956671889502E+01
Total Energy                               R     -7.732956671889502E+01
RMS Force                                  R      3.860207662400708E-06
RMS Density                                R      5.957596858995913E-09
NImag                                      I                0
Job Status                                 I                1
Nuclear derivative order                   I                2
External E-field                           R   N=          35
  0.00000000E+00  0.00000000E+00  0.00000000E+00  0.00000000E+00  0.00000000E+00
  0.00000000E+00  0.00000000E+00  0.00000000E+00  0.00000000E+00  0.00000000E+00
  0.00000000E+00  0.00000000E+00  0.00000000E+00  0.00000000E+00  0.00000000E+00
  0.00000000E+00  0.00000000E+00  0.00000000E+00  0.00000000E+00  0.00000000E+00
  0.00000000E+00  0.00000000E+00  0.00000000E+00  0.00000000E+00  0.00000000E+00
  0.00000000E+00  0.00000000E+00  0.00000000E+00  0.00000000E+00  0.00000000E+00
  0.00000000E+00  0.00000000E+00  0.00000000E+00  0.00000000E+00  0.00000000E+00
IOpCl                                      I                0
IROHF                                      I                0
Alpha Orbital Energies                     R   N=          40
 -1.01921024E+01 -1.01896978E+01 -7.42715385E-01 -5.64149900E-01 -4.90270674E-01
 -2.82355582E-01 -2.82355571E-01  5.05710667E-02  5.05710805E-02  1.06201518E-01
  1.49684495E-01  4.26053233E-01  4.70711311E-01  5.32902578E-01  5.32902585E-01
  6.54226742E-01  6.54226748E-01  7.46382038E-01  8.11812826E-01  1.02262626E+00
  1.19961727E+00  1.37689574E+00  1.37689576E+00  1.47714627E+00  1.54934976E+00
  1.54934976E+00  1.93197585E+00  1.93197586E+00  1.94362763E+00  1.94362764E+00
  2.24995716E+00  2.38203535E+00  2.38203537E+00  2.73101086E+00  3.03081388E+00
  3.03081390E+00  3.34992776E+00  3.82748526E+00  4.57298398E+00  5.33562438E+00
Alpha MO coefficients                      R   N=        1600
  7.01492807E-01  3.36656852E-02 -4.90647873E-05 -3.94306404E-04  6.02328987E-04
 -3.74663103E-03  2.26067296E-05  1.81677827E-04 -2.77524614E-04 -7.40837499E-03
 -6.89145097E-03 -6.19130415E-03  7.54418982E-05 -1.15242663E-04 -9.26136089E-04
 -1.04921088E-03  9.84333088E-04 -4.14720877E-05 -3.33285516E-04  5.09117654E-04
  7.01464333E-01  3.36642433E-02  4.90668614E-05  3.94323105E-04 -6.02354494E-04
 -3.74597024E-03 -2.26251233E-05 -1.81825662E-04  2.77750441E-04 -7.40809106E-03
 -6.89119071E-03 -6.19107594E-03  7.54384412E-05 -1.15237382E-04 -9.26093694E-04
 -1.04916325E-03  9.84352914E-04  4.14703854E-05  3.33271911E-04 -5.09096862E-04
 -7.02318112E-01 -3.55926445E-02 -5.21590830E-05 -4.19167633E-04  6.40310975E-04
  1.62962135E-02  4.53821118E-04  3.64708134E-03 -5.57118029E-03  7.01206404E-03
  6.42573766E-03  5.63158939E-03 -8.55707684E-05  1.30715248E-04  1.05047918E-03
  1.17581531E-03  4.89983619E-04  4.17883877E-05  3.35827501E-04 -5.13000830E-04
  7.02346551E-01  3.55940105E-02 -5.21571137E-05 -4.19151830E-04  6.40286832E-04
 -1.62963652E-02  4.53820210E-04  3.64707414E-03 -5.57116927E-03 -7.01236477E-03
 -6.42601743E-03 -5.63184080E-03  8.55738181E-05 -1.30719905E-04 -1.05051671E-03
 -1.17585780E-03 -4.89943919E-04  4.17900528E-05  3.35840967E-04 -5.13021389E-04
 -1.74897448E-01  3.31347565E-01  1.00064231E-02  8.04154649E-02 -1.22840411E-01
  2.50522852E-01 -1.39256865E-03 -1.11911930E-02  1.70953579E-02 -1.64698888E-02
 -8.78259205E-03  1.62945406E-03  1.12191189E-03 -1.71380398E-03 -1.37727883E-02
  7.91104278E-02 -1.89874801E-03  5.69315763E-04  4.57524070E-03 -6.98901000E-03
 -1.74897427E-01  3.31347505E-01 -1.00064250E-02 -8.04154777E-02  1.22840431E-01
  2.50522800E-01  1.39256819E-03  1.11911909E-02 -1.70953544E-02 -1.64698856E-02
 -8.78258925E-03  1.62945619E-03  1.12191179E-03 -1.71380382E-03 -1.37727875E-02
  7.91103965E-02 -1.89875997E-03 -5.69315547E-04 -4.57523933E-03  6.98900786E-03
 -1.13465241E-01  2.27228355E-01 -1.40193366E-02 -1.12664877E-01  1.72103715E-01
  1.98687764E-01 -4.62807586E-03 -3.71929969E-02  5.68149849E-02 -1.05607707E-02
 -5.91433378E-03  3.79022210E-04  6.78113020E-04 -1.03587718E-03 -8.32469365E-03
  2.20105749E-01  1.24607026E-01  8.58028665E-04  6.89544949E-03 -1.05332964E-02
  1.13465270E-01 -2.27228391E-01 -1.40193194E-02 -1.12664748E-01  1.72103516E-01
 -1.98687799E-01 -4.62807329E-03 -3.71929785E-02  5.68149565E-02  1.05607727E-02
  5.91433570E-03 -3.79020138E-04 -6.78112915E-04  1.03587700E-03  8.32469374E-03
 -2.20105644E-01 -1.24606938E-01  8.58028265E-04  6.89544736E-03 -1.05332930E-02
  3.68500576E-03  4.44069683E-03 -2.64212020E-02 -2.12331045E-01  3.24350959E-01
  2.03243446E-03 -3.88094862E-03 -3.11887615E-02  4.76430823E-02  1.38770904E-03
  2.92411183E-03  5.00508566E-03  2.24222224E-04 -3.42526159E-04 -2.75266345E-03
  2.25262065E-01  1.97238560E-01  5.88857131E-04  4.73228283E-03 -7.22890366E-03
  3.68494309E-03  4.44082297E-03  2.64212059E-02  2.12331095E-01 -3.24351034E-01
  2.03259144E-03  3.88094848E-03  3.11887644E-02 -4.76430861E-02  1.38770404E-03
  2.92410814E-03  5.00508361E-03  2.24222363E-04 -3.42526365E-04 -2.75266574E-03
  2.25262180E-01  1.97238641E-01 -5.88857455E-04 -4.73228634E-03  7.22890891E-03
  3.22891133E-09 -7.05766664E-09 -2.64893611E-01  2.80051900E-01  1.61753488E-01
 -1.53829002E-07 -1.60349360E-01  1.69525130E-01  9.79151332E-02 -1.32122203E-03
  1.12255944E-02 -9.90434497E-03 -5.32383347E-03  9.83026535E-03 -6.15695921E-03
 -7.73828079E-10 -3.32861531E-08 -7.18721628E-03  7.59849859E-03  4.38877020E-03
 -2.95986956E-09  6.59352747E-09 -2.64893571E-01  2.80051855E-01  1.61753467E-01
  1.51724271E-07 -1.60349330E-01  1.69525097E-01  9.79151162E-02  1.32122232E-03
 -1.12255967E-02  9.90434701E-03  5.32383455E-03 -9.83026739E-03  6.15696050E-03
  6.86274821E-10  3.30189370E-08 -7.18721498E-03  7.59849712E-03  4.38876954E-03
  1.93708859E-10  1.83654916E-09  3.22157171E-01  2.10116374E-01  1.63791744E-01
  6.83739361E-08  1.95013005E-01  1.27190822E-01  9.91488212E-02  1.60686016E-03
  8.42229859E-03 -1.00291610E-02  8.06060027E-03 -1.09171680E-02 -3.63745087E-03
 -3.68880804E-10  1.81814322E-08  8.74091865E-03  5.70097551E-03  4.44407430E-03
 -2.93571486E-10 -1.66427018E-09  3.22157122E-01  2.10116343E-01  1.63791718E-01
 -6.75927191E-08  1.95012969E-01  1.27190799E-01  9.91488022E-02 -1.60686051E-03
 -8.42230031E-03  1.00291631E-02 -8.06060194E-03  1.09171703E-02  3.63745163E-03
  4.01379898E-10 -1.80822174E-08  8.74091707E-03  5.70097451E-03  4.44407344E-03
 -6.33855750E-09  2.03362873E-08  2.93147071E-01 -2.53176893E-01 -1.41858701E-01
 -4.90106651E-08  4.94708204E-01 -4.27255404E-01 -2.39397501E-01 -2.54658425E-03
  1.76747960E-02 -1.51282415E-02 -1.05457895E-02  1.87606584E-02 -9.87043147E-03
 -3.43034995E-09  1.24183558E-08  1.71009600E-02 -1.47692676E-02 -8.27543813E-03
 -2.73381925E-09  1.16569197E-08 -2.93147088E-01  2.53176906E-01  1.41858712E-01
 -2.16433474E-08 -4.94708240E-01  4.27255397E-01  2.39397570E-01 -2.54658369E-03
  1.76747903E-02 -1.51282351E-02 -1.05457859E-02  1.87606518E-02 -9.87042928E-03
  3.23791350E-09  6.62361050E-08 -1.71009591E-02  1.47692671E-02  8.27543754E-03
  1.64547805E-09  3.97324847E-09  2.88852365E-01  2.35053177E-01  1.77403251E-01
 -6.57866506E-08  4.87460665E-01  3.96670391E-01  2.99381630E-01 -2.50925409E-03
 -1.64095443E-02  1.89188015E-02 -1.28213747E-02  1.68949821E-02  7.32188314E-03
  5.53311700E-09  5.21596788E-08  1.68504271E-02  1.37120100E-02  1.03489556E-02
  2.56901048E-09  1.74952937E-09 -2.88852381E-01 -2.35053191E-01 -1.77403260E-01
 -5.87738555E-08 -4.87460698E-01 -3.96670426E-01 -2.99381636E-01 -2.50925325E-03
 -1.64095387E-02  1.89187954E-02 -1.28213703E-02  1.68949763E-02  7.32188032E-03
  7.24155030E-09  6.59482890E-08 -1.68504263E-02 -1.37120094E-02 -1.03489552E-02
  1.02354004E-01 -2.37406893E-01  6.28833624E-03  5.05354817E-02 -7.71965964E-02
  3.29317832E-01  1.10881778E-01  8.91088719E-01 -1.36120223E+00 -7.68816792E-03
  7.49858951E-03  2.80682696E-02  2.21641782E-03 -3.38572842E-03 -2.72090419E-02
  1.28355798E-01  1.78217387E+00 -8.79852628E-04 -7.07083910E-03  1.08012159E-02
 -1.02353973E-01  2.37406849E-01  6.28830882E-03  5.05353672E-02 -7.71964082E-02
 -3.29318630E-01  1.10881714E-01  8.91088480E-01 -1.36120183E+00  7.68816741E-03
 -7.49858518E-03 -2.80682602E-02 -2.21641765E-03  3.38572822E-03  2.72090340E-02
 -1.28355738E-01 -1.78217285E+00 -8.79852955E-04 -7.07083521E-03  1.08012108E-02
  4.92242946E-02 -3.30278916E-02  2.09394170E-02  1.68277361E-01 -2.57055802E-01
 -1.28602852E+00  5.03144924E-02  4.04346612E-01 -6.17668641E-01 -1.82540902E-04
  4.57024720E-03  1.10076561E-02  6.93647973E-04 -1.05958389E-03 -8.51523577E-03
  6.45932827E-02  1.59869875E+00 -5.62599351E-04 -4.52126206E-03  6.90655289E-03
  4.92243655E-02 -3.30280516E-02 -2.09394173E-02 -1.68277383E-01  2.57055833E-01
 -1.28602822E+00 -5.03145725E-02 -4.04347295E-01  6.17669680E-01 -1.82547135E-04
  4.57025236E-03  1.10076764E-02  6.93649518E-04 -1.05958623E-03 -8.51525602E-03
  6.45933588E-02  1.59870005E+00  5.62599776E-04  4.52126642E-03 -6.90655944E-03
 -1.13083159E-01 -5.81784955E-02  1.50169920E-02  1.20682899E-01 -1.84351775E-01
  6.22583266E+00  3.33934966E-01  2.68363010E+00 -4.09943836E+00  6.43855184E-03
 -2.67214838E-02 -7.16350409E-02 -4.83950294E-03  7.39269184E-03  5.94104985E-02
 -3.82374810E-01  2.27160676E+00  1.74585281E-03  1.40303559E-02 -2.14323774E-02
  1.13083159E-01  5.81783023E-02  1.50169935E-02  1.20682940E-01 -1.84351833E-01
 -6.22583256E+00  3.33934947E-01  2.68363002E+00 -4.09943822E+00 -6.43855442E-03
  2.67214684E-02  7.16350068E-02  4.83950062E-03 -7.39268823E-03 -5.94104749E-02
  3.82374666E-01 -2.27160655E+00  1.74585284E-03  1.40303532E-02 -2.14323737E-02
  6.06184740E-03  7.05266719E-01  1.26454204E-02  1.01623117E-01 -1.55236668E-01
 -3.17243556E-01 -4.14599783E-02 -3.33187905E-01  5.08968569E-01  1.96665220E-02
  5.01620823E-02  9.14667414E-02  4.45063657E-03 -6.79866814E-03 -5.46367457E-02
  3.84480311E-01 -6.88331299E-01 -1.03458591E-03 -8.31433955E-03  1.27007505E-02
  6.06188380E-03  7.05266693E-01 -1.26454196E-02 -1.01623071E-01  1.55236603E-01
 -3.17245605E-01  4.14600981E-02  3.33188838E-01 -5.08969998E-01  1.96665222E-02
  5.01620909E-02  9.14667609E-02  4.45063761E-03 -6.79866970E-03 -5.46367606E-02
  3.84480417E-01 -6.88332098E-01  1.03458688E-03  8.31434548E-03 -1.27007598E-02
  7.81373216E-09 -2.84925973E-08  6.57426446E-02  5.77636444E-01  3.83495530E-01
 -3.30112563E-07 -6.13243692E-02 -5.38816034E-01 -3.57722142E-01  6.71531878E-04
  4.74155491E-02 -4.80870481E-02  6.52211195E-03 -2.49789234E-03 -2.36432157E-02
  1.10411628E-08 -1.19269432E-07  1.28450276E-04  1.12861241E-03  7.49292107E-04
 -7.69172267E-09  2.43774397E-08  6.57426232E-02  5.77636257E-01  3.83495408E-01
  3.35102880E-07 -6.13243342E-02 -5.38815726E-01 -3.57721941E-01 -6.71532194E-04
 -4.74155562E-02  4.80870544E-02 -6.52211286E-03  2.49789273E-03  2.36432192E-02
 -1.25297050E-08  1.20112140E-07  1.28450671E-04  1.12861589E-03  7.49294525E-04
 -1.04538802E-08  2.77628085E-08  6.91729752E-01 -8.09536412E-02  3.35239366E-03
  1.27932607E-07 -6.45241438E-01  7.55131453E-02 -3.12718777E-03  7.06547319E-03
 -6.64511923E-03 -4.20397100E-04  3.23051065E-02 -5.00578363E-02  6.01950624E-03
 -6.16052466E-08  9.81029060E-08  1.35153380E-03 -1.58169161E-04  6.54604879E-06
  1.01895574E-08 -1.88479368E-08  6.91729529E-01 -8.09536129E-02  3.35238936E-03
 -1.38743610E-07 -6.45241072E-01  7.55130992E-02 -3.12718124E-03 -7.06547364E-03
  6.64512088E-03  4.20398157E-04 -3.23051111E-02  5.00578433E-02 -6.01950748E-03
  6.48298503E-08 -9.99282339E-08  1.35153804E-03 -1.58169547E-04  6.54590474E-06
 -5.43957103E-09 -1.19274530E-08  3.15779924E-01 -6.24859387E-01 -3.83330966E-01
  2.30009803E-07 -4.74917829E-01  9.39758417E-01  5.76511321E-01 -1.83607280E-03
  2.91970793E-02 -2.73610721E-02 -6.42126799E-03  1.42999768E-02 -1.54090196E-02
 -3.52895301E-08 -6.12044892E-08 -3.02434611E-03  5.98451302E-03  3.67130856E-03
 -4.99163720E-09 -2.61524435E-08 -3.15780009E-01  6.24859545E-01  3.83331080E-01
  1.00825111E-07  4.74917913E-01 -9.39758478E-01 -5.76511538E-01 -1.83607129E-03
  2.91970579E-02 -2.73610585E-02 -6.42126398E-03  1.42999677E-02 -1.54090055E-02
 -4.62456634E-08 -1.17542459E-07  3.02434478E-03 -5.98451058E-03 -3.67130674E-03
 -1.44602736E-09  6.55559924E-08 -7.31058314E-01 -2.37526434E-01 -2.15043760E-01
 -3.63967808E-07  1.09947646E+00  3.57228347E-01  3.23415315E-01  4.25059028E-03
  1.10986285E-02 -1.53491895E-02  2.05192244E-02 -2.94047496E-02 -3.98708134E-03
  4.43566056E-08  2.01957924E-07  7.00161989E-03  2.27488171E-03  2.05954785E-03
 -1.77664411E-09  7.60556357E-08  7.31058509E-01  2.37526502E-01  2.15043808E-01
 -2.68612384E-07 -1.09947663E+00 -3.57228464E-01 -3.23415271E-01  4.25058726E-03
  1.10986224E-02 -1.53491758E-02  2.05192109E-02 -2.94047302E-02 -3.98708149E-03
  5.24437212E-08  2.43542570E-07 -7.00161685E-03 -2.27488061E-03 -2.05954713E-03
  2.96026174E-02 -6.34547744E-01  3.05493009E-02  2.45506033E-01 -3.75028193E-01
 -4.50631961E+00 -3.96868256E-01 -3.18938680E+00  4.87201816E+00 -1.38200360E-02
 -5.60867465E-02 -1.13334807E-01 -6.16854921E-03  9.42292998E-03  7.57262810E-02
 -1.85151418E-01 -2.71161248E+00 -1.80145404E-03 -1.44771746E-02  2.21149267E-02
 -2.96026066E-02  6.34547384E-01  3.05492511E-02  2.45505861E-01 -3.75027901E-01
  4.50632099E+00 -3.96868103E-01 -3.18938616E+00  4.87201710E+00  1.38200050E-02
  5.60867312E-02  1.13334811E-01  6.16855067E-03 -9.42293211E-03 -7.57263079E-02
  1.85151505E-01  2.71161124E+00 -1.80145026E-03 -1.44771494E-02  2.21148876E-02
  1.88432701E-02 -6.63784937E-01  4.04292553E-02  3.24905879E-01 -4.96317144E-01
  2.46632758E+00 -1.45483978E-01 -1.16916692E+00  1.78598673E+00 -6.67685492E-02
 -3.87501306E-02 -8.00613301E-04  4.08913685E-03 -6.24641031E-03 -5.01986312E-02
  1.31674374E-01 -2.14688589E+00 -5.55243601E-03 -4.46215753E-02  6.81626710E-02
  1.88432928E-02 -6.63785310E-01 -4.04292635E-02 -3.24906000E-01  4.96317321E-01
  2.46632468E+00  1.45484210E-01  1.16916890E+00 -1.78598973E+00 -6.67685622E-02
 -3.87501681E-02 -8.00683451E-04  4.08913341E-03 -6.24640507E-03 -5.01985876E-02
  1.31674236E-01 -2.14688753E+00  5.55243737E-03  4.46215831E-02 -6.81626832E-02
 -1.09987575E-02  5.51129467E-01  1.19462336E-02  9.60049150E-02 -1.46654418E-01
  5.03674969E-01 -9.84392090E-02 -7.91096264E-01  1.20845654E+00  4.35326093E-02
  1.06245507E-02 -3.39477201E-02 -4.80273251E-03  7.33651362E-03  5.89590455E-02
 -8.27120128E-01 -3.77946049E-01  4.24415831E-03  3.41076327E-02 -5.21018718E-02
 -1.09987671E-02  5.51129457E-01 -1.19462351E-02 -9.60049623E-02  1.46654486E-01
  5.03675817E-01  9.84391623E-02  7.91095951E-01 -1.20845605E+00  4.35326152E-02
  1.06245530E-02 -3.39477080E-02 -4.80272788E-03  7.33650592E-03  5.89590450E-02
 -8.27120044E-01 -3.77945941E-01 -4.24415319E-03 -3.41076287E-02  5.21018610E-02
  2.19559540E-02 -6.77964100E-01 -5.77171884E-02 -4.63837681E-01  7.08545463E-01
  1.22046517E+00  4.46535811E-02  3.58853491E-01 -5.48174552E-01 -8.29327817E-02
 -4.89564115E-02 -2.93728091E-03  4.95861330E-03 -7.57466667E-03 -6.08730191E-02
 -6.05014483E-01  4.77239618E-01  8.02915347E-03  6.45253268E-02 -9.85671134E-02
 -2.19559539E-02  6.77964018E-01 -5.77171883E-02 -4.63837690E-01  7.08545476E-01
 -1.22046514E+00  4.46535816E-02  3.58853454E-01 -5.48174500E-01  8.29327657E-02
  4.89564119E-02  2.93729836E-03 -4.95861267E-03  7.57466594E-03  6.08729922E-02
  6.05014565E-01 -4.77239649E-01  8.02915242E-03  6.45253350E-02 -9.85671239E-02
 -1.14156146E-10  1.98993001E-07  1.15881504E-01 -1.11711742E-01 -6.36907767E-02
 -1.67534563E-06 -6.31247064E-02  6.08526126E-02  3.46954768E-02 -3.92631022E-02
  3.04179733E-01 -2.64916678E-01 -1.60320444E-01  2.90741997E-01 -1.68143492E-01
 -2.58780070E-08 -3.05267696E-07  1.81974079E-01 -1.75426165E-01 -1.00016493E-01
  8.75305544E-11 -2.08436140E-07  1.15881522E-01 -1.11711754E-01 -6.36907937E-02
  1.64471495E-06 -6.31246909E-02  6.08525664E-02  3.46955090E-02  3.92630960E-02
 -3.04179707E-01  2.64916659E-01  1.60320435E-01 -2.90741970E-01  1.68143475E-01
  4.50292487E-08  3.31863812E-07  1.81974060E-01 -1.75426144E-01 -1.00016486E-01
 -3.22049476E-09 -1.73289825E-07  1.28052704E-01  9.23992030E-02  7.09186587E-02
  1.56285159E-06 -6.97546335E-02 -5.03324425E-02 -3.86327079E-02 -4.33869655E-02
 -2.51593559E-01  2.94980540E-01 -2.19382209E-01  2.93638308E-01  1.10402695E-01
  6.11495899E-08  2.60203292E-07  2.01087053E-01  1.45098731E-01  1.11366807E-01
  3.21202302E-09  1.70285314E-07  1.28052724E-01  9.23992184E-02  7.09186669E-02
 -1.57259722E-06 -6.97546137E-02 -5.03324363E-02 -3.86326827E-02  4.33869571E-02
  2.51593540E-01 -2.94980513E-01  2.19382190E-01 -2.93638284E-01 -1.10402685E-01
 -5.50562794E-08 -2.51741331E-07  2.01087032E-01  1.45098717E-01  1.11366794E-01
 -4.04241043E-02 -1.33370217E+00 -1.37823588E-03 -1.10761660E-02  1.69195965E-02
  1.47636439E+01  7.01421382E-01  5.63689368E+00 -8.61076115E+00 -1.07359748E-01
  4.85682952E-02  2.59764553E-01  2.27567453E-02 -3.47625309E-02 -2.79365193E-01
  6.69910844E-01  2.60624633E+00 -9.71457077E-03 -7.80700225E-02  1.19257517E-01
  4.04241035E-02  1.33370221E+00 -1.37823184E-03 -1.10761710E-02  1.69195994E-02
 -1.47636439E+01  7.01421338E-01  5.63689375E+00 -8.61076121E+00  1.07359758E-01
 -4.85682929E-02 -2.59764547E-01 -2.27567414E-02  3.47625244E-02  2.79365200E-01
 -6.69910887E-01 -2.60624637E+00 -9.71456208E-03 -7.80700345E-02  1.19257525E-01
  2.85018534E-09 -5.12054118E-09 -3.89942028E-08  5.47911929E-10  2.22577321E-08
 -7.69644420E-08  3.55738703E-08  1.63623190E-08 -5.27166809E-08 -1.10437091E-01
  4.22119171E-02  6.82252274E-02  5.50745441E-01  3.50148717E-01  7.67712385E-02
 -4.96222755E-09  5.93714062E-08  8.49952750E-10  1.02303142E-08 -6.21195943E-09
  2.85019154E-09 -5.12041231E-09  3.76677237E-08  7.68300046E-10 -2.15041605E-08
 -7.69660293E-08 -3.52074251E-08 -1.67252527E-08  5.25076323E-08 -1.10437076E-01