 Entering Gaussian System, Link 0=/software/sse/easybuild/prefix/software/Gaussian/16.B.01-avx2-nsc1-bdist/g16/g16.orig
 Input=freq-lm.wrap
 Output=freq-lm.log
 Initial command:
 /software/sse/easybuild/prefix/software/Gaussian/16.B.01-avx2-nsc1-bdist/g16/l1.exe "/scratch/local/Gau-80156.inp" -scrdir="/scratch/local/"
 Default is to use a total of  16 processors:
                               16 via shared-memory
                                1 via Linda
 Entering Link 1 = /software/sse/easybuild/prefix/software/Gaussian/16.B.01-avx2-nsc1-bdist/g16/l1.exe PID=     80160.
  
 Copyright (c) 1988-2017, Gaussian, Inc.  All Rights Reserved.
  
 This is part of the Gaussian(R) 16 program.  It is based on
 the Gaussian(R) 09 system (copyright 2009, Gaussian, Inc.),
 the Gaussian(R) 03 system (copyright 2003, Gaussian, Inc.),
 the Gaussian(R) 98 system (copyright 1998, Gaussian, Inc.),
 the Gaussian(R) 94 system (copyright 1995, Gaussian, Inc.),
 the Gaussian 92(TM) system (copyright 1992, Gaussian, Inc.),
 the Gaussian 90(TM) system (copyright 1990, Gaussian, Inc.),
 the Gaussian 88(TM) system (copyright 1988, Gaussian, Inc.),
 the Gaussian 86(TM) system (copyright 1986, Carnegie Mellon
 University), and the Gaussian 82(TM) system (copyright 1983,
 Carnegie Mellon University). Gaussian is a federally registered
 trademark of Gaussian, Inc.
  
 This software contains proprietary and confidential information,
 including trade secrets, belonging to Gaussian, Inc.
  
 This software is provided under written license and may be
 used, copied, transmitted, or stored only in accord with that
 written license.
  
 The following legend is applicable only to US Government
 contracts under FAR:
  
                    RESTRICTED RIGHTS LEGEND
  
 Use, reproduction and disclosure by the US Government is
 subject to restrictions as set forth in subparagraphs (a)
 and (c) of the Commercial Computer Software - Restricted
 Rights clause in FAR 52.227-19.
  
 Gaussian, Inc.
 340 Quinnipiac St., Bldg. 40, Wallingford CT 06492
  
  
 ---------------------------------------------------------------
 Warning -- This program may not be used in any manner that
 competes with the business of Gaussian, Inc. or will provide
 assistance to any competitor of Gaussian, Inc.  The licensee
 of this program is prohibited from giving any competitor of
 Gaussian, Inc. access to this program.  By using this program,
 the user acknowledges that Gaussian, Inc. is engaged in the
 business of creating and licensing software in the field of
 computational chemistry and represents and warrants to the
 licensee that it is not a competitor of Gaussian, Inc. and that
 it will not use this program in any manner prohibited above.
 ---------------------------------------------------------------
  

 Cite this work as:
 Gaussian 16, Revision B.01,
 M. J. Frisch, G. W. Trucks, H. B. Schlegel, G. E. Scuseria, 
 M. A. Robb, J. R. Cheeseman, G. Scalmani, V. Barone, 
 G. A. Petersson, H. Nakatsuji, X. Li, M. Caricato, A. V. Marenich, 
 J. Bloino, B. G. Janesko, R. Gomperts, B. Mennucci, H. P. Hratchian, 
 J. V. Ortiz, A. F. Izmaylov, J. L. Sonnenberg, D. Williams-Young, 
 F. Ding, F. Lipparini, F. Egidi, J. Goings, B. Peng, A. Petrone, 
 T. Henderson, D. Ranasinghe, V. G. Zakrzewski, J. Gao, N. Rega, 
 G. Zheng, W. Liang, M. Hada, M. Ehara, K. Toyota, R. Fukuda, 
 J. Hasegawa, M. Ishida, T. Nakajima, Y. Honda, O. Kitao, H. Nakai, 
 T. Vreven, K. Throssell, J. A. Montgomery, Jr., J. E. Peralta, 
 F. Ogliaro, M. J. Bearpark, J. J. Heyd, E. N. Brothers, K. N. Kudin, 
 V. N. Staroverov, T. A. Keith, R. Kobayashi, J. Normand, 
 K. Raghavachari, A. P. Rendell, J. C. Burant, S. S. Iyengar, 
 J. Tomasi, M. Cossi, J. M. Millam, M. Klene, C. Adamo, R. Cammi, 
 J. W. Ochterski, R. L. Martin, K. Morokuma, O. Farkas, 
 J. B. Foresman, and D. J. Fox, Gaussian, Inc., Wallingford CT, 2016.
 
 ******************************************
 Gaussian 16:  ES64L-G16RevB.01 20-Dec-2017
                10-Aug-2019 
 ******************************************
 %chk=freq.chk
 ----------------------------------------------------------------------
 # freq(intmodes) iop(1/33=3) b3lyp/6-31g(d,p) geom=connectivity iop(7/
 75=-1)
 ----------------------------------------------------------------------
 1/10=4,18=20,30=1,33=3,38=1,57=2/1,3;
 2/9=110,12=2,17=6,18=5,40=1/2;
 3/5=1,6=6,7=101,11=2,25=1,30=1,71=2,74=-5,140=1/1,2,3;
 4//1;
 5/5=2,38=5,98=1/2;
 8/6=4,10=90,11=11/1;
 11/6=1,8=1,9=11,15=111,16=1/1,2,10;
 10/6=1/2;
 6/7=2,8=2,9=2,10=2,28=1/1;
 7/8=21,10=1,25=1,75=-1/1,2,3,16;
 1/10=4,18=20,30=1,33=3/3;
 99//99;
 ONIOM results not found on unit 2.
 ----
 name
 ----
 TstMul:  ICh=     0
 TstMul:  Mul=     1
 TstMul:  ICh=     0
 TstMul:  Mul=     1
 Symbolic Z-matrix:
 Charge =  0 Multiplicity = 1
 C                     0.        0.        0.60268 
 H                     0.        0.        1.66839 
 C                     0.        0.       -0.60268 
 H                     0.        0.       -1.66839 
 
 RdStrC is calling ZToCFu for IStruc=1 NZ=     4.
                                ZToCFu                                
 ---------------------------------------------------------------------
 Center     Atomic      Atomic             Coordinates (Angstroms)
 Number     Number       Type             X           Y           Z
 ---------------------------------------------------------------------
      1          6           0        0.000000    0.000000    0.602675
      2          1           0        0.000000    0.000000    1.668391
      3          6           0        0.000000    0.000000   -0.602675
      4          1           0        0.000000    0.000000   -1.668391
 ---------------------------------------------------------------------
 Connectivity in DoCon:
 I=     1 IAn=  6 IBond, RBType=     2  1.00     3  3.00
 I=     2 IAn=  1 IBond, RBType=     1  1.00
 I=     3 IAn=  6 IBond, RBType=     1  3.00     4  1.00
 I=     4 IAn=  1 IBond, RBType=     3  1.00
 After GenITR:
 ITRead=  0  0  0  0
 MicOpt= -1 -1 -1 -1
 List IsCon N=      4 M=      2:
 I=      1 Vals=      2      1 |      3      3 |
 I=      2 Vals=      1      1 |
 I=      3 Vals=      1      3 |      4      1 |
 I=      4 Vals=      3      1 |
 Coordinate R1 contains atom 1 which is already in QM block.
 Coordinate R1 contains atom 2 which is already in QM block.
 Coordinate R2 contains atom 1 which is already in QM block.
 Coordinate R2 contains atom 3 which is already in QM block.
 Coordinate R3 contains atom 3 which is already in QM block.
 Coordinate R3 contains atom 4 which is already in QM block.
 Coordinate L1 contains atom 2 which is already in QM block.
 Coordinate L1 contains atom 1 which is already in QM block.
 Coordinate L1 contains atom 1 which is already in QM block.
 Coordinate L2 contains atom 1 which is already in QM block.
 Coordinate L2 contains atom 3 which is already in QM block.
 Coordinate L2 contains atom 3 which is already in QM block.
 Coordinate L3 contains atom 2 which is already in QM block.
 Coordinate L3 contains atom 1 which is already in QM block.
 Coordinate L3 contains atom 1 which is already in QM block.
 Coordinate L4 contains atom 1 which is already in QM block.
 Coordinate L4 contains atom 3 which is already in QM block.
 Coordinate L4 contains atom 3 which is already in QM block.
 Saved connectivity
 I=     1 IAn=  6 IBond, RBType=     2  1.00     3  3.00
 I=     2 IAn=  1 IBond, RBType=     1  1.00
 I=     3 IAn=  6 IBond, RBType=     1  3.00     4  1.00
 I=     4 IAn=  1 IBond, RBType=     3  1.00
 ITRead=  0  0  0  0
 MicOpt= -1 -1 -1 -1
 NAtoms=      4 NQM=        4 NQMF=       0 NMMI=      0 NMMIF=      0
                NMic=       0 NMicF=      0.
 No MM parameters found.
 Leave Link  101 at Sat Aug 10 16:33:05 2019, MaxMem=  4294967296 cpu:               5.4 elap:               0.4

 GradGradGradGradGradGradGradGradGradGradGradGradGradGradGradGradGradGrad
 Berny optimization.
 GetPCM: File not found, return IValue=0.
 Optmz: redundant internal coordinate code flag= 1
 Initialization pass.
                           ----------------------------
                           !    Initial Parameters    !
                           ! (Angstroms and Degrees)  !
 --------------------------                            --------------------------
 ! Name  Definition              Value          Derivative Info.                !
 --------------------------------------------------------------------------------
 ! R1    R(1,2)                  1.0657         calculate D2E/DX2 analytically  !
 ! R2    R(1,3)                  1.2054         calculate D2E/DX2 analytically  !
 ! R3    R(3,4)                  1.0657         calculate D2E/DX2 analytically  !
 ! A1    L(2,1,3,-1,-1)        180.0            calculate D2E/DX2 analytically  !
 ! A2    L(1,3,4,-1,-1)        180.0            calculate D2E/DX2 analytically  !
 ! A3    L(2,1,3,-2,-2)        180.0            calculate D2E/DX2 analytically  !
 ! A4    L(1,3,4,-2,-2)        180.0            calculate D2E/DX2 analytically  !
 --------------------------------------------------------------------------------
 Maximum allowed force set to 1.00D+20.
 Trust Radius=3.00D-01 FncErr=1.00D-07 GrdErr=1.00D-07 EigMax=2.50D+02 EigMin=1.00D-04
 Number of steps in this run=      2 maximum allowed number of steps=      2.
 GradGradGradGradGradGradGradGradGradGradGradGradGradGradGradGradGradGrad

 Leave Link  103 at Sat Aug 10 16:33:05 2019, MaxMem=  4294967296 cpu:               0.2 elap:               0.2
                          Input orientation:                          
 ---------------------------------------------------------------------
 Center     Atomic      Atomic             Coordinates (Angstroms)
 Number     Number       Type             X           Y           Z
 ---------------------------------------------------------------------
      1          6           0        0.000000    0.000000    0.602675
      2          1           0        0.000000    0.000000    1.668391
      3          6           0        0.000000    0.000000   -0.602675
      4          1           0        0.000000    0.000000   -1.668391
 ---------------------------------------------------------------------
                    Distance matrix (angstroms):
                    1          2          3          4
     1  C    0.000000
     2  H    1.065716   0.000000
     3  C    1.205350   2.271066   0.000000
     4  H    2.271066   3.336782   1.065716   0.000000
 Stoichiometry    C2H2
 Framework group  D*H[C*(HC.CH)]
 Deg. of freedom     2
 Full point group                 D*H     NOp   8
 Largest Abelian subgroup         D2H     NOp   8
 Largest concise Abelian subgroup C2      NOp   2
                         Standard orientation:                         
 ---------------------------------------------------------------------
 Center     Atomic      Atomic             Coordinates (Angstroms)
 Number     Number       Type             X           Y           Z
 ---------------------------------------------------------------------
      1          6           0        0.000000    0.000000    0.602675
      2          1           0        0.000000    0.000000    1.668391
      3          6           0        0.000000    0.000000   -0.602675
      4          1           0        0.000000    0.000000   -1.668391
 ---------------------------------------------------------------------
 Rotational constants (GHZ):           0.0000000          35.2725407          35.2725407
 Standard basis: 6-31G(d,p) (6D, 7F)
 There are    11 symmetry adapted cartesian basis functions of AG  symmetry.
 There are     1 symmetry adapted cartesian basis functions of B1G symmetry.
 There are     4 symmetry adapted cartesian basis functions of B2G symmetry.
 There are     4 symmetry adapted cartesian basis functions of B3G symmetry.
 There are     1 symmetry adapted cartesian basis functions of AU  symmetry.
 There are    11 symmetry adapted cartesian basis functions of B1U symmetry.
 There are     4 symmetry adapted cartesian basis functions of B2U symmetry.
 There are     4 symmetry adapted cartesian basis functions of B3U symmetry.
 There are    11 symmetry adapted basis functions of AG  symmetry.
 There are     1 symmetry adapted basis functions of B1G symmetry.
 There are     4 symmetry adapted basis functions of B2G symmetry.
 There are     4 symmetry adapted basis functions of B3G symmetry.
 There are     1 symmetry adapted basis functions of AU  symmetry.
 There are    11 symmetry adapted basis functions of B1U symmetry.
 There are     4 symmetry adapted basis functions of B2U symmetry.
 There are     4 symmetry adapted basis functions of B3U symmetry.
    40 basis functions,    70 primitive gaussians,    40 cartesian basis functions
     7 alpha electrons        7 beta electrons
       nuclear repulsion energy        24.7180958064 Hartrees.
 NAtoms=    4 NActive=    4 NUniq=    2 SFac= 4.00D+00 NAtFMM=   60 NAOKFM=F Big=F
 Integral buffers will be    131072 words long.
 Raffenetti 2 integral format.
 Two-electron integral symmetry is turned on.
 One-electron integrals computed using PRISM.
 NBasis=    40 RedAO= T EigKep=  1.03D-03  NBF=    11     1     4     4     1    11     4     4
 NBsUse=    40 1.00D-06 EigRej= -1.00D+00 NBFU=    11     1     4     4     1    11     4     4
 ExpMin= 1.61D-01 ExpMax= 3.05D+03 ExpMxC= 4.57D+02 IAcc=3 IRadAn=         5 AccDes= 0.00D+00
 Harris functional with IExCor=  402 and IRadAn=       5 diagonalized for initial guess.
 HarFok:  IExCor=  402 AccDes= 0.00D+00 IRadAn=         5 IDoV= 1 UseB2=F ITyADJ=14
 ICtDFT=  3500011 ScaDFX=  1.000000  1.000000  1.000000  1.000000
 FoFCou: FMM=F IPFlag=           0 FMFlag=      100000 FMFlg1=           0
         NFxFlg=           0 DoJE=T BraDBF=F KetDBF=T FulRan=T
         wScrn=  0.000000 ICntrl=       500 IOpCl=  0 I1Cent=   200000004 NGrid=           0
         NMat0=    1 NMatS0=      1 NMatT0=    0 NMatD0=    1 NMtDS0=    0 NMtDT0=    0
 Petite list used in FoFCou.
 Initial guess orbital symmetries:
       Occupied  (SGG) (SGU) (SGG) (SGU) (SGG) (PIU) (PIU)
       Virtual   (PIG) (PIG) (SGU) (SGG) (SGU) (SGG) (PIU) (PIU)
                 (PIG) (PIG) (SGU) (SGG) (SGG) (SGU) (PIU) (PIU)
                 (DLTG) (DLTG) (SGU) (DLTU) (DLTU) (PIG) (PIG)
                 (SGG) (PIU) (PIU) (SGU) (PIG) (PIG) (SGG) (SGU)
                 (SGG) (SGU)
 The electronic state of the initial guess is 1-SGG.
 Keep R1 ints in memory in symmetry-blocked form, NReq=14169430.
 Requested convergence on RMS density matrix=1.00D-08 within 128 cycles.
 Requested convergence on MAX density matrix=1.00D-06.
 Requested convergence on             energy=1.00D-06.
 No special actions if energy rises.
 Integral accuracy reduced to 1.0D-05 until final iterations.
 Initial convergence to 1.0D-05 achieved.  Increase integral accuracy.
 SCF Done:  E(RB3LYP) =  -77.3295667172     A.U. after    9 cycles
            NFock=  9  Conv=0.10D-08     -V/T= 2.0102
 DoSCS=F DFT=T ScalE2(SS,OS)=  1.000000  1.000000
 Range of M.O.s used for correlation:     1    40
 NBasis=    40 NAE=     7 NBE=     7 NFC=     0 NFV=     0
 NROrb=     40 NOA=     7 NOB=     7 NVA=    33 NVB=    33

 **** Warning!!: The largest alpha MO coefficient is  0.14763644D+02

 Symmetrizing basis deriv contribution to polar:
 IMax=3 JMax=2 DiffMx= 0.00D+00
 G2DrvN: will do     5 centers at a time, making    1 passes.
 Calling FoFCou, ICntrl=  3107 FMM=F I1Cent=   0 AccDes= 0.00D+00.
 End of G2Drv F.D. properties file   721 does not exist.
 End of G2Drv F.D. properties file   722 does not exist.
 End of G2Drv F.D. properties file   788 does not exist.
          IDoAtm=1111
          Differentiating once with respect to electric field.
                with respect to dipole field.
          Differentiating once with respect to nuclear coordinates.
 Keep R1 ints in memory in symmetry-blocked form, NReq=14117027.
          There are     9 degrees of freedom in the 1st order CPHF.  IDoFFX=4 NUNeed=     9.
      9 vectors produced by pass  0 Test12= 2.57D-15 1.11D-08 XBig12= 3.41D+01 3.83D+00.
 AX will form     9 AO Fock derivatives at one time.
      9 vectors produced by pass  1 Test12= 2.57D-15 1.11D-08 XBig12= 1.73D+01 2.24D+00.
      9 vectors produced by pass  2 Test12= 2.57D-15 1.11D-08 XBig12= 4.05D-01 3.53D-01.
      9 vectors produced by pass  3 Test12= 2.57D-15 1.11D-08 XBig12= 4.16D-04 5.90D-03.
      9 vectors produced by pass  4 Test12= 2.57D-15 1.11D-08 XBig12= 1.18D-06 4.86D-04.
      7 vectors produced by pass  5 Test12= 2.57D-15 1.11D-08 XBig12= 1.13D-09 1.10D-05.
      1 vectors produced by pass  6 Test12= 2.57D-15 1.11D-08 XBig12= 4.30D-13 2.76D-07.
 InvSVY:  IOpt=1 It=  1 EMax= 8.88D-16
 Solved reduced A of dimension    53 with     9 vectors.
 Isotropic polarizability for W=    0.000000       14.72 Bohr**3.
 End of Minotr F.D. properties file   721 does not exist.
 End of Minotr F.D. properties file   722 does not exist.
 End of Minotr F.D. properties file   788 does not exist.

 **********************************************************************

            Population analysis using the SCF Density.

 **********************************************************************

 Orbital symmetries:
       Occupied  (SGG) (SGU) (SGG) (SGU) (SGG) (PIU) (PIU)
       Virtual   (PIG) (PIG) (SGU) (SGG) (SGU) (SGG) (PIU) (PIU)
                 (PIG) (PIG) (SGU) (SGG) (SGG) (SGU) (PIU) (PIU)
                 (SGU) (DLTG) (DLTG) (PIG) (PIG) (DLTU) (DLTU)
                 (SGG) (PIU) (PIU) (SGU) (PIG) (PIG) (SGG) (SGU)
                 (SGG) (SGU)
 The electronic state is 1-SGG.
 Alpha  occ. eigenvalues --  -10.19210 -10.18970  -0.74272  -0.56415  -0.49027
 Alpha  occ. eigenvalues --   -0.28236  -0.28236
 Alpha virt. eigenvalues --    0.05057   0.05057   0.10620   0.14968   0.42605
 Alpha virt. eigenvalues --    0.47071   0.53290   0.53290   0.65423   0.65423
 Alpha virt. eigenvalues --    0.74638   0.81181   1.02263   1.19962   1.37690
 Alpha virt. eigenvalues --    1.37690   1.47715   1.54935   1.54935   1.93198
 Alpha virt. eigenvalues --    1.93198   1.94363   1.94363   2.24996   2.38204
 Alpha virt. eigenvalues --    2.38204   2.73101   3.03081   3.03081   3.34993
 Alpha virt. eigenvalues --    3.82749   4.57298   5.33562
          Condensed to atoms (all electrons):
               1          2          3          4
     1  C    4.813273   0.368514   0.996000  -0.029077
     2  H    0.368514   0.509710  -0.029077   0.002142
     3  C    0.996000  -0.029077   4.813273   0.368514
     4  H   -0.029077   0.002142   0.368514   0.509710
 Mulliken charges:
               1
     1  C   -0.148710
     2  H    0.148710
     3  C   -0.148710
     4  H    0.148710
 Sum of Mulliken charges =  -0.00000
 Mulliken charges with hydrogens summed into heavy atoms:
               1
     1  C   -0.000000
     3  C   -0.000000
 APT charges:
               1
     1  C   -0.197162
     2  H    0.197162
     3  C   -0.197162
     4  H    0.197162
 Sum of APT charges =   0.00000
 APT charges with hydrogens summed into heavy atoms:
               1
     1  C    0.000000
     3  C    0.000000
 Electronic spatial extent (au):  <R**2>=             59.8450
 Charge=             -0.0000 electrons
 Dipole moment (field-independent basis, Debye):
    X=              0.0000    Y=             -0.0000    Z=              0.0000  Tot=              0.0000
 Quadrupole moment (field-independent basis, Debye-Ang):
   XX=            -13.0012   YY=            -13.0012   ZZ=             -6.8161
   XY=              0.0000   XZ=             -0.0000   YZ=              0.0000
 Traceless Quadrupole moment (field-independent basis, Debye-Ang):
   XX=             -2.0617   YY=             -2.0617   ZZ=              4.1234
   XY=              0.0000   XZ=             -0.0000   YZ=              0.0000
 Octapole moment (field-independent basis, Debye-Ang**2):
  XXX=             -0.0000  YYY=             -0.0000  ZZZ=             -0.0000  XYY=             -0.0000
  XXY=              0.0000  XXZ=             -0.0000  XZZ=              0.0000  YZZ=             -0.0000
  YYZ=             -0.0000  XYZ=              0.0000
 Hexadecapole moment (field-independent basis, Debye-Ang**3):
 XXXX=            -13.2992 YYYY=            -13.2992 ZZZZ=            -38.0569 XXXY=              0.0000
 XXXZ=              0.0000 YYYX=              0.0000 YYYZ=              0.0000 ZZZX=              0.0000
 ZZZY=              0.0000 XXYY=             -4.4331 XXZZ=            -11.6769 YYZZ=            -11.6769
 XXYZ=              0.0000 YYXZ=              0.0000 ZZXY=              0.0000
 N-N= 2.471809580636D+01 E-N=-2.284582208165D+02  KE= 7.654915845060D+01
 Symmetry AG   KE= 3.783104404707D+01
 Symmetry B1G  KE= 9.616050583427D-35
 Symmetry B2G  KE= 2.100164576023D-32
 Symmetry B3G  KE= 2.100164576023D-32
 Symmetry AU   KE= 2.065347480883D-34
 Symmetry B1U  KE= 3.428633673792D+01
 Symmetry B2U  KE= 2.215888832809D+00
 Symmetry B3U  KE= 2.215888832809D+00
  Exact polarizability:   7.998  -0.000   7.998   0.000   0.000  28.154
 Approx polarizability:   9.970  -0.000   9.970  -0.000  -0.000  51.674
 Calling FoFJK, ICntrl=    100127 FMM=F ISym2X=1 I1Cent= 0 IOpClX= 0 NMat=1 NMatS=1 NMatT=0.
 Full mass-weighted force constant matrix:
 Low frequencies ---   -0.0011   -0.0011   -0.0008    4.4855    4.4855  563.1726
 Low frequencies ---  563.1726  773.3647  773.3647
 Diagonal vibrational polarizability:
        3.5818017       3.5818017       0.1947094
 Harmonic frequencies (cm**-1), IR intensities (KM/Mole), Raman scattering
 activities (A**4/AMU), depolarization ratios for plane and unpolarized
 incident light, reduced masses (AMU), force constants (mDyne/A),
 and normal coordinates:
                      1                      2                      3
                     PIG                    PIG                    PIU
 Frequencies --    563.1726               563.1726               773.3647
 Red. masses --      1.5715                 1.5715                 1.0848
 Frc consts  --      0.2937                 0.2937                 0.3823
 IR Inten    --      0.0000                 0.0000                79.6044
  Atom  AN      X      Y      Z        X      Y      Z        X      Y      Z
     1   6    -0.16   0.00   0.00    -0.00  -0.16   0.00    -0.06  -0.00   0.00
     2   1     0.69  -0.00  -0.00     0.00   0.69   0.00     0.70   0.00   0.00
     3   6     0.16  -0.00  -0.00     0.00   0.16  -0.00    -0.06  -0.00  -0.00
     4   1    -0.69   0.00   0.00    -0.00  -0.69   0.00     0.70   0.00  -0.00
                      4                      5                      6
                     PIU                    SGG                    SGU
 Frequencies --    773.3647              2085.9266              3436.0333
 Red. masses --      1.0848                 3.8169                 1.0848
 Frc consts  --      0.3823                 9.7850                 7.5461
 IR Inten    --     79.6044                 0.0000                85.4218
  Atom  AN      X      Y      Z        X      Y      Z        X      Y      Z
     1   6     0.00  -0.06  -0.00     0.00   0.00   0.36     0.00   0.00  -0.06
     2   1    -0.00   0.70   0.00    -0.00  -0.00   0.61     0.00  -0.00   0.70
     3   6     0.00  -0.06   0.00     0.00  -0.00  -0.36    -0.00  -0.00  -0.06
     4   1    -0.00   0.70  -0.00    -0.00   0.00  -0.61     0.00   0.00   0.70
                      7
                     SGG
 Frequencies --   3535.6100
 Red. masses --      1.2291
 Frc consts  --      9.0527
 IR Inten    --      0.0000
  Atom  AN      X      Y      Z
     1   6    -0.00  -0.00  -0.10
     2   1    -0.00   0.00   0.70
     3   6     0.00   0.00   0.10
     4   1    -0.00  -0.00  -0.70

 -------------------
 - Thermochemistry -
 -------------------
 Temperature   298.150 Kelvin.  Pressure   1.00000 Atm.
 Atom     1 has atomic number  6 and mass  12.00000
 Atom     2 has atomic number  1 and mass   1.00783
 Atom     3 has atomic number  6 and mass  12.00000
 Atom     4 has atomic number  1 and mass   1.00783
 Molecular mass:    26.01565 amu.
 Principal axes and moments of inertia in atomic units:
                           1         2         3
     Eigenvalues --     0.00000  51.16561  51.16561
           X           -0.00000   1.00000  -0.00000
           Y            0.00000   0.00000   1.00000
           Z            1.00000   0.00000  -0.00000
 This molecule is a prolate symmetric top.
 Rotational symmetry number  2.
 Rotational temperature (Kelvin)      1.69282
 Rotational constant (GHZ):          35.272541
 Zero-point vibrational energy      70164.8 (Joules/Mol)
                                   16.76980 (Kcal/Mol)
 Warning -- explicit consideration of   2 degrees of freedom as
           vibrations may cause significant error
 Vibrational temperatures:    810.28   810.28  1112.70  1112.70  3001.18
          (Kelvin)           4943.69  5086.95
 
 Zero-point correction=                           0.026724 (Hartree/Particle)
 Thermal correction to Energy=                    0.029621
 Thermal correction to Enthalpy=                  0.030565
 Thermal correction to Gibbs Free Energy=         0.007718
 Sum of electronic and zero-point Energies=            -77.302842
 Sum of electronic and thermal Energies=               -77.299946
 Sum of electronic and thermal Enthalpies=             -77.299002
 Sum of electronic and thermal Free Energies=          -77.321849
 
                     E (Thermal)             CV                S
                      KCal/Mol        Cal/Mol-Kelvin    Cal/Mol-Kelvin
 Total                   18.587              8.590             48.087
 Electronic               0.000              0.000              0.000
 Translational            0.889              2.981             35.704
 Rotational               0.592              1.987             10.886
 Vibrational             17.106              3.622              1.496
 Vibration     1          0.919              1.111              0.518
 Vibration     2          0.919              1.111              0.518
                       Q            Log10(Q)             Ln(Q)
 Total Bot       0.281938D-03         -3.549846         -8.173823
 Total V=0       0.552716D+09          8.742502         20.130355
 Vib (Bot)       0.613836D-12        -12.211947        -28.119048
 Vib (Bot)    1  0.275123D+00         -0.560474         -1.290538
 Vib (Bot)    2  0.275123D+00         -0.560474         -1.290538
 Vib (V=0)       0.120337D+01          0.080401          0.185130
 Vib (V=0)    1  0.107069D+01          0.029666          0.068308
 Vib (V=0)    2  0.107069D+01          0.029666          0.068308
 Electronic      0.100000D+01          0.000000          0.000000
 Translational   0.521562D+07          6.717306         15.467168
 Rotational      0.880634D+02          1.944795          4.478057
                           ----------------------------
                           ! Normal Mode     1        !
 --------------------------                            --------------------------
 ! Name  Definition              Value          Relative Weight (%)             !
 --------------------------------------------------------------------------------
 ! R1    R(1,2)                  0.0                     0.0                    !
 ! R2    R(1,3)                  0.0                     0.0                    !
 ! R3    R(3,4)                  0.0                     0.0                    !
 ! A1    L(2,1,3,-1,-1)          0.0                     0.0                    !
 ! A2    L(1,3,4,-1,-1)          0.0                     0.0                    !
 ! A3    L(2,1,3,-2,-2)          0.5621                 50.0                    !
 ! A4    L(1,3,4,-2,-2)         -0.5621                 50.0                    !
 --------------------------------------------------------------------------------
                           ----------------------------
                           ! Normal Mode     2        !
 --------------------------                            --------------------------
 ! Name  Definition              Value          Relative Weight (%)             !
 --------------------------------------------------------------------------------
 ! R1    R(1,2)                  0.0                     0.0                    !
 ! R2    R(1,3)                  0.0                     0.0                    !
 ! R3    R(3,4)                  0.0                     0.0                    !
 ! A1    L(2,1,3,-1,-1)         -0.5621                 50.0                    !
 ! A2    L(1,3,4,-1,-1)          0.5621                 50.0                    !
 ! A3    L(2,1,3,-2,-2)          0.0                     0.0                    !
 ! A4    L(1,3,4,-2,-2)          0.0                     0.0                    !
 --------------------------------------------------------------------------------
                           ----------------------------
                           ! Normal Mode     3        !
 --------------------------                            --------------------------
 ! Name  Definition              Value          Relative Weight (%)             !
 --------------------------------------------------------------------------------
 ! R1    R(1,2)                  0.0                     0.0                    !
 ! R2    R(1,3)                  0.0                     0.0                    !
 ! R3    R(3,4)                  0.0                     0.0                    !
 ! A1    L(2,1,3,-1,-1)         -0.0001                  0.0                    !
 ! A2    L(1,3,4,-1,-1)         -0.0001                  0.0                    !
 ! A3    L(2,1,3,-2,-2)          0.3793                 50.0                    !
 ! A4    L(1,3,4,-2,-2)          0.3793                 50.0                    !
 --------------------------------------------------------------------------------
                           ----------------------------
                           ! Normal Mode     4        !
 --------------------------                            --------------------------
 ! Name  Definition              Value          Relative Weight (%)             !
 --------------------------------------------------------------------------------
 ! R1    R(1,2)                  0.0                     0.0                    !
 ! R2    R(1,3)                  0.0                     0.0                    !
 ! R3    R(3,4)                  0.0                     0.0                    !
 ! A1    L(2,1,3,-1,-1)         -0.3793                 50.0                    !
 ! A2    L(1,3,4,-1,-1)         -0.3793                 50.0                    !
 ! A3    L(2,1,3,-2,-2)         -0.0001                  0.0                    !
 ! A4    L(1,3,4,-2,-2)         -0.0001                  0.0                    !
 --------------------------------------------------------------------------------
                           ----------------------------
                           ! Normal Mode     5        !
 --------------------------                            --------------------------
 ! Name  Definition              Value          Relative Weight (%)             !
 --------------------------------------------------------------------------------
 ! R1    R(1,2)                  0.2526                 20.7                    !
 ! R2    R(1,3)                  0.7149                 58.6                    !
 ! R3    R(3,4)                  0.2526                 20.7                    !
 ! A1    L(2,1,3,-1,-1)          0.0                     0.0                    !
 ! A2    L(1,3,4,-1,-1)          0.0                     0.0                    !
 ! A3    L(2,1,3,-2,-2)          0.0                     0.0                    !
 ! A4    L(1,3,4,-2,-2)          0.0                     0.0                    !
 --------------------------------------------------------------------------------
                           ----------------------------
                           ! Normal Mode     6        !
 --------------------------                            --------------------------
 ! Name  Definition              Value          Relative Weight (%)             !
 --------------------------------------------------------------------------------
 ! R1    R(1,2)                  0.7638                 50.0                    !
 ! R2    R(1,3)                  0.0                     0.0                    !
 ! R3    R(3,4)                 -0.7638                 50.0                    !
 ! A1    L(2,1,3,-1,-1)          0.0                     0.0                    !
 ! A2    L(1,3,4,-1,-1)          0.0                     0.0                    !
 ! A3    L(2,1,3,-2,-2)          0.0                     0.0                    !
 ! A4    L(1,3,4,-2,-2)          0.0                     0.0                    !
 --------------------------------------------------------------------------------
                           ----------------------------
                           ! Normal Mode     7        !
 --------------------------                            --------------------------
 ! Name  Definition              Value          Relative Weight (%)             !
 --------------------------------------------------------------------------------
 ! R1    R(1,2)                  0.8003                 44.4                    !
 ! R2    R(1,3)                 -0.2007                 11.1                    !
 ! R3    R(3,4)                  0.8003                 44.4                    !
 ! A1    L(2,1,3,-1,-1)          0.0                     0.0                    !
 ! A2    L(1,3,4,-1,-1)          0.0                     0.0                    !
 ! A3    L(2,1,3,-2,-2)          0.0                     0.0                    !
 ! A4    L(1,3,4,-2,-2)          0.0                     0.0                    !
 --------------------------------------------------------------------------------
 Max01P=      3 Av01P=    2.29 Stan. Dev.=    0.49
 Max05P=      3 Av05P=    2.29 Stan. Dev.=    0.49
 Max10P=      3 Av10P=    2.29 Stan. Dev.=    0.49
 MaxNDP=      7 AvNDP=    7.00 Stan. Dev.=    0.00
 ***** Axes restored to original set *****
 -------------------------------------------------------------------
 Center     Atomic                   Forces (Hartrees/Bohr)
 Number     Number              X              Y              Z
 -------------------------------------------------------------------
      1        6           0.000000000    0.000000000   -0.000006144
      2        1          -0.000000000    0.000000000   -0.000007170
      3        6          -0.000000000   -0.000000000    0.000006144
      4        1          -0.000000000   -0.000000000    0.000007170
 -------------------------------------------------------------------
 Cartesian Forces:  Max     0.000007170 RMS     0.000003855
 FormGI is forming the generalized inverse of G from B-inverse, IUseBI=4.

 GradGradGradGradGradGradGradGradGradGradGradGradGradGradGradGradGradGrad
 Berny optimization.
 GetPCM: File not found, return IValue=0.
 Optmz: redundant internal coordinate code flag= 1
 IB Matrix in FormBX:
              1            2            3            4            5
     1            1            1            3            2            1
     2            2            3            4            1            3
     3            0            0            0            3            4
     4            0            0            0            0            0
              6            7
     1            2            1
     2            1            3
     3            3            4
     4            0            0
 B Matrix in FormBX:
                 1             2             3             4             5 
      1   0.000000D+00  0.000000D+00  0.000000D+00  0.000000D+00  0.000000D+00
      2   0.000000D+00  0.000000D+00  0.000000D+00 -0.496546D+00 -0.439024D+00
      3  -0.100000D+01  0.100000D+01  0.100000D+01  0.000000D+00  0.000000D+00
      4   0.000000D+00  0.000000D+00  0.000000D+00  0.000000D+00  0.000000D+00
      5   0.000000D+00  0.000000D+00  0.000000D+00  0.935570D+00  0.935570D+00
      6   0.100000D+01 -0.100000D+01 -0.100000D+01  0.000000D+00  0.000000D+00
      7   0.000000D+00  0.000000D+00  0.000000D+00  0.000000D+00  0.000000D+00
      8   0.000000D+00  0.000000D+00  0.000000D+00 -0.439024D+00 -0.496546D+00
      9   0.000000D+00  0.000000D+00  0.000000D+00  0.000000D+00  0.000000D+00
     10   0.000000D+00  0.000000D+00  0.000000D+00  0.000000D+00  0.000000D+00
     11   0.000000D+00  0.000000D+00  0.000000D+00  0.000000D+00  0.000000D+00
     12   0.000000D+00  0.000000D+00  0.000000D+00  0.000000D+00  0.000000D+00
                 6             7 
      1   0.496546D+00  0.439024D+00
      2   0.000000D+00  0.000000D+00
      3   0.000000D+00  0.000000D+00
      4  -0.935570D+00 -0.935570D+00
      5   0.000000D+00  0.000000D+00
      6   0.000000D+00  0.000000D+00
      7   0.439024D+00  0.496546D+00
      8   0.000000D+00  0.000000D+00
      9   0.000000D+00  0.000000D+00
     10   0.000000D+00  0.000000D+00
     11   0.000000D+00  0.000000D+00
     12   0.000000D+00  0.000000D+00
 IB Matrix in Red2BG:
              1            2            3            4            5
     1            1            1            3            2            1
     2            2            3            4            1            3
     3            0            0            0            3            4
     4            0            0            0            0            0
              6            7
     1            2            1
     2            1            3
     3            3            4
     4            0            0
 B Matrix in Red2BG:
                 1             2             3             4             5 
      1   0.000000D+00  0.000000D+00  0.000000D+00  0.000000D+00  0.000000D+00
      2   0.000000D+00  0.000000D+00  0.000000D+00 -0.496546D+00 -0.439024D+00
      3  -0.100000D+01  0.100000D+01  0.100000D+01  0.000000D+00  0.000000D+00
      4   0.000000D+00  0.000000D+00  0.000000D+00  0.000000D+00  0.000000D+00
      5   0.000000D+00  0.000000D+00  0.000000D+00  0.935570D+00  0.935570D+00
      6   0.100000D+01 -0.100000D+01 -0.100000D+01  0.000000D+00  0.000000D+00
      7   0.000000D+00  0.000000D+00  0.000000D+00  0.000000D+00  0.000000D+00
      8   0.000000D+00  0.000000D+00  0.000000D+00 -0.439024D+00 -0.496546D+00
      9   0.000000D+00  0.000000D+00  0.000000D+00  0.000000D+00  0.000000D+00
     10   0.000000D+00  0.000000D+00  0.000000D+00  0.000000D+00  0.000000D+00
     11   0.000000D+00  0.000000D+00  0.000000D+00  0.000000D+00  0.000000D+00
     12   0.000000D+00  0.000000D+00  0.000000D+00  0.000000D+00  0.000000D+00
                 6             7 
      1   0.496546D+00  0.439024D+00
      2   0.000000D+00  0.000000D+00
      3   0.000000D+00  0.000000D+00
      4  -0.935570D+00 -0.935570D+00
      5   0.000000D+00  0.000000D+00
      6   0.000000D+00  0.000000D+00
      7   0.439024D+00  0.496546D+00
      8   0.000000D+00  0.000000D+00
      9   0.000000D+00  0.000000D+00
     10   0.000000D+00  0.000000D+00
     11   0.000000D+00  0.000000D+00
     12   0.000000D+00  0.000000D+00
 G Matrix: 
                 1             2             3             4             5 
      1   0.200000D+01 -0.100000D+01  0.000000D+00  0.000000D+00  0.000000D+00
      2  -0.100000D+01  0.200000D+01 -0.100000D+01  0.000000D+00  0.000000D+00
      3   0.000000D+00 -0.100000D+01  0.200000D+01  0.000000D+00  0.000000D+00
      4   0.000000D+00  0.000000D+00  0.000000D+00  0.131459D+01 -0.821475D+00
      5   0.000000D+00  0.000000D+00  0.000000D+00 -0.821475D+00  0.131459D+01
      6   0.000000D+00  0.000000D+00  0.000000D+00  0.000000D+00  0.000000D+00
      7   0.000000D+00  0.000000D+00  0.000000D+00  0.000000D+00  0.000000D+00
                 6             7 
      1   0.000000D+00  0.000000D+00
      2   0.000000D+00  0.000000D+00
      3   0.000000D+00  0.000000D+00
      4   0.000000D+00  0.000000D+00
      5   0.000000D+00  0.000000D+00
      6   0.131459D+01 -0.821475D+00
      7  -0.821475D+00  0.131459D+01
 Red2BG:  D1=  4.93D-01 OD1=  6.41D-15 B2RMS=  0.00D+00 IAprox=1
 Red2BG is reusing G-inverse.
 G-Inverse: 
                1             2             3             4             5 
      1  0.750000D+00
      2  0.500000D+00  0.100000D+01
      3  0.250000D+00  0.500000D+00  0.750000D+00
      4  0.000000D+00  0.000000D+00  0.000000D+00  0.124803D+01
      5  0.000000D+00  0.000000D+00  0.000000D+00  0.779885D+00  0.124803D+01
      6  0.000000D+00  0.000000D+00  0.000000D+00  0.000000D+00  0.000000D+00
      7  0.000000D+00  0.000000D+00  0.000000D+00  0.000000D+00  0.000000D+00
                6             7 
      6  0.124803D+01
      7  0.779885D+00  0.124803D+01
 Internal  Forces:  Max     0.000013314 RMS     0.000006326
 Search for a local minimum.
 Step number   1 out of a maximum of    2
 All quantities printed in internal units (Hartrees-Bohrs-Radians)
 Second derivative matrix not updated -- analytic derivatives used.
 The second derivative matrix:
                          R1        R2        R3        A1        A2
           R1           0.41554
           R2          -0.00527   1.13331
           R3           0.00013  -0.00527   0.41554
           A1           0.00000   0.00000  -0.00000   0.05759
           A2          -0.00000  -0.00000   0.00000   0.02775   0.05759
           A3           0.00000  -0.00000  -0.00000   0.00000   0.00000
           A4           0.00000   0.00000  -0.00000  -0.00000  -0.00000
                          A3        A4
           A3           0.05759
           A4           0.02775   0.05759
 ITU=  0
 IAlgDg is returning  0.
 DiagDN:  BShift=  1.00D+00
 Eigenvectors of the second derivative matrix:
                           1         2         3         4         5
     Eigenvalues --     0.02984   0.02984   0.08534   0.08534   0.41540
   1         R1        -0.00000   0.00000  -0.00000   0.00000   0.70711
   2         R2         0.00000  -0.00000   0.00000  -0.00000   0.00000
   3         R3        -0.00000   0.00000   0.00000   0.00000  -0.70711
   4         A1        -0.00043   0.70711  -0.00018  -0.70711  -0.00000
   5         A2         0.00043  -0.70711  -0.00018  -0.70711  -0.00000
   6         A3         0.70711   0.00043   0.70711  -0.00018   0.00000
   7         A4        -0.70711  -0.00043   0.70711  -0.00018   0.00000
                           6         7
     Eigenvalues --     0.41559   1.13339
   1         R1        -0.70707  -0.00735
   2         R2        -0.01039   0.99995
   3         R3        -0.70707  -0.00735
   4         A1         0.00000   0.00000
   5         A2        -0.00000  -0.00000
   6         A3        -0.00000  -0.00000
   7         A4         0.00000   0.00000
 Forces in eigenvector basis: 
                 1 
      1   0.000000D+00
      2   0.000000D+00
      3   0.000000D+00
      4   0.000000D+00
      5   0.000000D+00
      6   0.102780D-04
      7  -0.132081D-04
 Angle between quadratic step and forces=  26.88 degrees.
 Linear search not attempted -- first point.
 IB Matrix in FormBX:
              1            2            3            4            5
     1            1            1            3            2            1
     2            2            3            4            1            3
     3            0            0            0            3            4
     4            0            0            0            0            0
              6            7
     1            2            1
     2            1            3
     3            3            4
     4            0            0
 B Matrix in FormBX:
                 1             2             3             4             5 
      1   0.000000D+00  0.000000D+00  0.000000D+00  0.000000D+00  0.000000D+00
      2   0.000000D+00  0.000000D+00  0.000000D+00 -0.496546D+00 -0.439024D+00
      3  -0.100000D+01  0.100000D+01  0.100000D+01  0.000000D+00  0.000000D+00
      4   0.000000D+00  0.000000D+00  0.000000D+00  0.000000D+00  0.000000D+00
      5   0.000000D+00  0.000000D+00  0.000000D+00  0.935570D+00  0.935570D+00
      6   0.100000D+01 -0.100000D+01 -0.100000D+01  0.000000D+00  0.000000D+00
      7   0.000000D+00  0.000000D+00  0.000000D+00  0.000000D+00  0.000000D+00
      8   0.000000D+00  0.000000D+00  0.000000D+00 -0.439024D+00 -0.496546D+00
      9   0.000000D+00  0.000000D+00  0.000000D+00  0.000000D+00  0.000000D+00
     10   0.000000D+00  0.000000D+00  0.000000D+00  0.000000D+00  0.000000D+00
     11   0.000000D+00  0.000000D+00  0.000000D+00  0.000000D+00  0.000000D+00
     12   0.000000D+00  0.000000D+00  0.000000D+00  0.000000D+00  0.000000D+00
                 6             7 
      1   0.496546D+00  0.439024D+00
      2   0.000000D+00  0.000000D+00
      3   0.000000D+00  0.000000D+00
      4  -0.935570D+00 -0.935570D+00
      5   0.000000D+00  0.000000D+00
      6   0.000000D+00  0.000000D+00
      7   0.439024D+00  0.496546D+00
      8   0.000000D+00  0.000000D+00
      9   0.000000D+00  0.000000D+00
     10   0.000000D+00  0.000000D+00
     11   0.000000D+00  0.000000D+00
     12   0.000000D+00  0.000000D+00
 Iteration  1 RMS(Cart)=  0.00001288 RMS(Int)=  0.00000000
 Iteration  2 RMS(Cart)=  0.00000000 RMS(Int)=  0.00000000
 Input Coordinates in SymCor: 
                 1             2             3             4 
      1   0.000000D+00  0.000000D+00  0.000000D+00  0.000000D+00
      2   0.000000D+00  0.000000D+00  0.000000D+00  0.000000D+00
      3   0.113888D+01  0.315278D+01 -0.113888D+01 -0.315278D+01
 Symmetrized Coordinates in SymCor: 
                 1             2             3             4 
      1   0.000000D+00  0.000000D+00  0.000000D+00  0.000000D+00
      2   0.000000D+00  0.000000D+00  0.000000D+00  0.000000D+00
      3   0.113888D+01  0.315278D+01 -0.113888D+01 -0.315278D+01
 Final Coordinates in SymCor: 
                 1             2             3             4 
      1   0.000000D+00  0.000000D+00  0.000000D+00  0.000000D+00
      2   0.000000D+00  0.000000D+00  0.000000D+00  0.000000D+00
      3   0.113888D+01  0.315278D+01 -0.113888D+01 -0.315278D+01
 ClnCor:  largest displacement from symmetrization is 6.25D-14 for atom     1.
 Variable       Old X    -DE/DX   Delta X   Delta X   Delta X     New X
                                 (Linear)    (Quad)   (Total)
    R1        2.01391  -0.00001   0.00000  -0.00002  -0.00002   2.01389
    R2        2.27778  -0.00001   0.00000  -0.00001  -0.00001   2.27777
    R3        2.01391  -0.00001   0.00000  -0.00002  -0.00002   2.01389
    A1        3.14159   0.00000   0.00000   0.00000   0.00000   3.14159
    A2        3.14159  -0.00000   0.00000  -0.00000   0.00000   3.14159
    A3        3.14159  -0.00000   0.00000  -0.00000   0.00000   3.14159
    A4        3.14159  -0.00000   0.00000   0.00000   0.00000   3.14159
         Item               Value     Threshold  Converged?
 Maximum Force            0.000013     0.000450     YES
 RMS     Force            0.000006     0.000300     YES
 Maximum Displacement     0.000023     0.001800     YES
 RMS     Displacement     0.000013     0.001200     YES
 Predicted change in Energy=-2.040532D-10
 Optimization completed.
    -- Stationary point found.
                           ----------------------------
                           !   Optimized Parameters   !
                           ! (Angstroms and Degrees)  !
 --------------------------                            --------------------------
 ! Name  Definition              Value          Derivative Info.                !
 --------------------------------------------------------------------------------
 ! R1    R(1,2)                  1.0657         -DE/DX =    0.0                 !
 ! R2    R(1,3)                  1.2054         -DE/DX =    0.0                 !
 ! R3    R(3,4)                  1.0657         -DE/DX =    0.0                 !
 ! A1    L(2,1,3,-1,-1)        180.0            -DE/DX =    0.0                 !
 ! A2    L(1,3,4,-1,-1)        180.0            -DE/DX =    0.0                 !
 ! A3    L(2,1,3,-2,-2)        180.0            -DE/DX =    0.0                 !
 ! A4    L(1,3,4,-2,-2)        180.0            -DE/DX =    0.0                 !
 --------------------------------------------------------------------------------
 GradGradGradGradGradGradGradGradGradGradGradGradGradGradGradGradGradGrad

 Leave Link  103 at Sat Aug 10 16:33:10 2019, MaxMem=  4294967296 cpu:               0.7 elap:               0.2
 Dipole is zero, so no output in dipole orientation.

 ----------------------------------------------------------------------

 Electric dipole moment (input orientation):
 (Debye = 10**-18 statcoulomb cm , SI units = C m)
                  (au)            (Debye)         (10**-30 SI)
   Tot        0.000000D+00      0.000000D+00      0.000000D+00
   x          0.000000D+00      0.000000D+00      0.000000D+00
   y          0.000000D+00      0.000000D+00      0.000000D+00
   z          0.000000D+00      0.000000D+00      0.000000D+00

 Dipole polarizability, Alpha (input orientation).
 (esu units = cm**3 , SI units = C**2 m**2 J**-1)
 Alpha(0;0):
               (au)            (10**-24 esu)      (10**-40 SI)
   iso        0.147168D+02      0.218081D+01      0.242648D+01
   aniso      0.201557D+02      0.298677D+01      0.332323D+01
   xx         0.799824D+01      0.118522D+01      0.131873D+01
   yx         0.000000D+00      0.000000D+00      0.000000D+00
   yy         0.799824D+01      0.118522D+01      0.131873D+01
   zx         0.000000D+00      0.000000D+00      0.000000D+00
   zy         0.000000D+00      0.000000D+00      0.000000D+00
   zz         0.281540D+02      0.417199D+01      0.464196D+01

 ----------------------------------------------------------------------

 Test job not archived.
 1\1\NSC-N973\Freq\RB3LYP\6-31G(d,p)\C2H2\X_KJEJO\10-Aug-2019\0\\# freq
 (intmodes) iop(1/33=3) b3lyp/6-31g(d,p) geom=connectivity iop(7/75=-1)
 \\name\\0,1\C,0.,0.,0.602675\H,0.,0.,1.668391\C,0.,0.,-0.602675\H,0.,0
 .,-1.668391\\Version=ES64L-G16RevB.01\State=1-SGG\HF=-77.3295667\RMSD=
 1.012e-09\RMSF=3.855e-06\ZeroPoint=0.0267244\Thermal=0.0296209\Dipole=
 0.,0.,0.\DipoleDeriv=-0.1948313,0.,0.,0.,-0.1948313,0.,0.,0.,-0.201824
 8,0.1948313,0.,0.,0.,0.1948313,0.,0.,0.,0.2018248,-0.1948313,0.,0.,0.,
 -0.1948313,0.,0.,0.,-0.2018248,0.1948313,0.,0.,0.,0.1948313,0.,0.,0.,0
 .2018248\Polar=7.9982406,0.,7.9982406,0.,0.,28.1539645\Quadrupole=-1.5
 3284,-1.53284,3.0656801,0.,0.,0.\PG=D*H [C*(H1C1.C1H1)]\NImag=0\\0.038
 72205,0.,0.03872205,0.,0.,1.55938963,-0.02070789,0.,0.,0.01420207,0.,-
 0.02070789,0.,0.,0.01420207,0.,0.,-0.42080889,0.,0.,0.41553601,-0.0176
 7836,0.,0.,-0.00033580,0.,0.,0.03872205,0.,-0.01767836,0.,0.,-0.000335
 80,0.,0.,0.03872205,0.,0.,-1.14398830,0.,0.,0.00540756,0.,0.,1.5593896
 3,-0.00033580,0.,0.,0.00684162,0.,0.,-0.02070789,0.,0.,0.01420207,0.,-
 0.00033580,0.,0.,0.00684162,0.,0.,-0.02070789,0.,0.,0.01420207,0.,0.,0
 .00540756,0.,0.,-0.00013468,0.,0.,-0.42080889,0.,0.,0.41553601\\0.,0.,
 0.00000614,0.,0.,0.00000717,0.,0.,-0.00000614,0.,0.,-0.00000717\\\@


 YOU KNOW YOU'VE SPOKEN TOO LONG WHEN THE AUDIENCE STOPS LOOKING AT
 THEIR WATCHES AND STARTS SHAKING THEM.
 Job cpu time:       0 days  0 hours  0 minutes 46.5 seconds.
 Elapsed time:       0 days  0 hours  0 minutes  5.0 seconds.
 File lengths (MBytes):  RWF=      6 Int=      0 D2E=      0 Chk=      8 Scr=      1
 Normal termination of Gaussian 16 at Sat Aug 10 16:33:10 2019.
