[Molden Format]
[Title]
 Generated by Molden2AIM, Version 5.1.2 (07/17/2025)           Time: Thu Feb 12 13:54:54 2026

[Atoms] AU
  C      1    6       -3.6728528166        1.4512529791       -1.0800729718
  C      2    6       -0.8542884934        0.9983612138       -0.7651123171
  C      3    6       -0.2956287564       -1.2268857952        0.9580533554
  O      4    8       -1.9642758299       -2.4941739351        1.9656742272
  C      5    6        2.3840217988       -1.9307709856        1.4700368568
  C      6    6        4.4090901184       -0.7483504463        0.5236809062
  H      7    1       -4.0073154451        3.0643798988       -2.3301646040
  H      8    1       -4.6050169240       -0.2051486691       -1.8984188741
  H      9    1       -4.5701136823        1.8482466453        0.7419253774
  H     10    1        0.0129635213        2.6959021999        0.0407424954
  H     11    1       -0.0222420766        0.6244600010       -2.6228264903
  H     12    1        2.6071417634       -3.5432176038        2.7210544548
  H     13    1        4.2835745086        0.8667984804       -0.7307381987
  H     14    1        6.2949423138       -1.4008539831        1.0062035773
[GTO]
    1    0
 S    5  1.0
    0.1238401694D+04    0.5517365039D-02
    0.1862900499D+03    0.4108882856D-01
    0.4225117635D+02    0.1822538213D+00
    0.1167655793D+02    0.4682845944D+00
    0.3593050648D+01    0.4457581733D+00
 S    1  1.0
    0.4024514736D+00    0.1000000000D+01
 S    1  1.0
    0.1309018267D+00    0.1000000000D+01
 P    3  1.0
    0.9468097062D+01    0.5688833197D-01
    0.2010354514D+01    0.3129405934D+00
    0.5477100471D+00    0.7606501651D+00
 P    1  1.0
    0.1526861379D+00    0.1000000000D+01
 D    1  1.0
    0.8000000000D+00    0.1000000000D+01

    2    0
 S    5  1.0
    0.1238401694D+04    0.5517365039D-02
    0.1862900499D+03    0.4108882856D-01
    0.4225117635D+02    0.1822538213D+00
    0.1167655793D+02    0.4682845944D+00
    0.3593050648D+01    0.4457581733D+00
 S    1  1.0
    0.4024514736D+00    0.1000000000D+01
 S    1  1.0
    0.1309018267D+00    0.1000000000D+01
 P    3  1.0
    0.9468097062D+01    0.5688833197D-01
    0.2010354514D+01    0.3129405934D+00
    0.5477100471D+00    0.7606501651D+00
 P    1  1.0
    0.1526861379D+00    0.1000000000D+01
 D    1  1.0
    0.8000000000D+00    0.1000000000D+01

    3    0
 S    5  1.0
    0.1238401694D+04    0.5517365039D-02
    0.1862900499D+03    0.4108882856D-01
    0.4225117635D+02    0.1822538213D+00
    0.1167655793D+02    0.4682845944D+00
    0.3593050648D+01    0.4457581733D+00
 S    1  1.0
    0.4024514736D+00    0.1000000000D+01
 S    1  1.0
    0.1309018267D+00    0.1000000000D+01
 P    3  1.0
    0.9468097062D+01    0.5688833197D-01
    0.2010354514D+01    0.3129405934D+00
    0.5477100471D+00    0.7606501651D+00
 P    1  1.0
    0.1526861379D+00    0.1000000000D+01
 D    1  1.0
    0.8000000000D+00    0.1000000000D+01

    4    0
 S    5  1.0
    0.2266176779D+04   -0.5389350397D-02
    0.3408701019D+03   -0.4023472136D-01
    0.7736313517D+02   -0.1800818421D+00
    0.2147964494D+02   -0.4682885765D+00
    0.6658943312D+01   -0.4469261716D+00
 S    1  1.0
    0.8097597567D+00    0.1000000000D+01
 S    1  1.0
    0.2553077223D+00    0.1000000000D+01
 P    3  1.0
    0.1772150432D+02    0.6263024876D-01
    0.3863550544D+01    0.3333113849D+00
    0.1048092088D+01    0.7414863831D+00
 P    1  1.0
    0.2764154441D+00    0.1000000000D+01
 D    1  1.0
    0.1200000000D+01    0.1000000000D+01

    5    0
 S    5  1.0
    0.1238401694D+04    0.5517365039D-02
    0.1862900499D+03    0.4108882856D-01
    0.4225117635D+02    0.1822538213D+00
    0.1167655793D+02    0.4682845944D+00
    0.3593050648D+01    0.4457581733D+00
 S    1  1.0
    0.4024514736D+00    0.1000000000D+01
 S    1  1.0
    0.1309018267D+00    0.1000000000D+01
 P    3  1.0
    0.9468097062D+01    0.5688833197D-01
    0.2010354514D+01    0.3129405934D+00
    0.5477100471D+00    0.7606501651D+00
 P    1  1.0
    0.1526861379D+00    0.1000000000D+01
 D    1  1.0
    0.8000000000D+00    0.1000000000D+01

    6    0
 S    5  1.0
    0.1238401694D+04    0.5517365039D-02
    0.1862900499D+03    0.4108882856D-01
    0.4225117635D+02    0.1822538213D+00
    0.1167655793D+02    0.4682845944D+00
    0.3593050648D+01    0.4457581733D+00
 S    1  1.0
    0.4024514736D+00    0.1000000000D+01
 S    1  1.0
    0.1309018267D+00    0.1000000000D+01
 P    3  1.0
    0.9468097062D+01    0.5688833197D-01
    0.2010354514D+01    0.3129405934D+00
    0.5477100471D+00    0.7606501651D+00
 P    1  1.0
    0.1526861379D+00    0.1000000000D+01
 D    1  1.0
    0.8000000000D+00    0.1000000000D+01

    7    0
 S    3  1.0
    0.1301070100D+02    0.3348548481D-01
    0.1962257200D+01    0.2347218709D+00
    0.4445379600D+00    0.8137702852D+00
 S    1  1.0
    0.1219496200D+00    0.1000000000D+01
 P    1  1.0
    0.8000000000D+00    0.1000000000D+01

    8    0
 S    3  1.0
    0.1301070100D+02    0.3348548481D-01
    0.1962257200D+01    0.2347218709D+00
    0.4445379600D+00    0.8137702852D+00
 S    1  1.0
    0.1219496200D+00    0.1000000000D+01
 P    1  1.0
    0.8000000000D+00    0.1000000000D+01

    9    0
 S    3  1.0
    0.1301070100D+02    0.3348548481D-01
    0.1962257200D+01    0.2347218709D+00
    0.4445379600D+00    0.8137702852D+00
 S    1  1.0
    0.1219496200D+00    0.1000000000D+01
 P    1  1.0
    0.8000000000D+00    0.1000000000D+01

   10    0
 S    3  1.0
    0.1301070100D+02    0.3348548481D-01
    0.1962257200D+01    0.2347218709D+00
    0.4445379600D+00    0.8137702852D+00
 S    1  1.0
    0.1219496200D+00    0.1000000000D+01
 P    1  1.0
    0.8000000000D+00    0.1000000000D+01

   11    0
 S    3  1.0
    0.1301070100D+02    0.3348548481D-01
    0.1962257200D+01    0.2347218709D+00
    0.4445379600D+00    0.8137702852D+00
 S    1  1.0
    0.1219496200D+00    0.1000000000D+01
 P    1  1.0
    0.8000000000D+00    0.1000000000D+01

   12    0
 S    3  1.0
    0.1301070100D+02    0.3348548481D-01
    0.1962257200D+01    0.2347218709D+00
    0.4445379600D+00    0.8137702852D+00
 S    1  1.0
    0.1219496200D+00    0.1000000000D+01
 P    1  1.0
    0.8000000000D+00    0.1000000000D+01

   13    0
 S    3  1.0
    0.1301070100D+02    0.3348548481D-01
    0.1962257200D+01    0.2347218709D+00
    0.4445379600D+00    0.8137702852D+00
 S    1  1.0
    0.1219496200D+00    0.1000000000D+01
 P    1  1.0
    0.8000000000D+00    0.1000000000D+01

   14    0
 S    3  1.0
    0.1301070100D+02    0.3348548481D-01
    0.1962257200D+01    0.2347218709D+00
    0.4445379600D+00    0.8137702852D+00
 S    1  1.0
    0.1219496200D+00    0.1000000000D+01
 P    1  1.0
    0.8000000000D+00    0.1000000000D+01

[MO]
 Sym= 1A
 Ene=        -18.74454834
 Spin= Alpha
 Occup=        2.00000000
    1       -0.0000544189
    2        0.0007363945
    3       -0.0084898395
    4       -0.0000189089
    5       -0.0000555912
    6        0.0000434887
    7       -0.0028502641
    8        0.0005757093
    9       -0.0004101269
   10       -0.0000779850
   11        0.0000855280
   12       -0.0000075430
   13       -0.0001255148
   14        0.0000966003
   15       -0.0002047827
   16       -0.0000087412
   17       -0.0003047119
   18       -0.0030232770
   19       -0.0000218180
   20       -0.0001208399
   21        0.0000942630
   22       -0.0085844631
   23        0.0025558122
   24       -0.0018741091
   25       -0.0001969915
   26        0.0001004869
   27        0.0000965046
   28        0.0003991185
   29       -0.0003062758
   30       -0.0000303633
   31       -0.0001633122
   32       -0.0031330251
   33       -0.0077836161
   34       -0.0005682539
   35       -0.0005258929
   36        0.0004165012
   37        0.0135138628
   38        0.0132065523
   39       -0.0104493072
   40        0.0002463395
   41       -0.0000282286
   42       -0.0002181109
   43        0.0011840451
   44       -0.0009331755
   45       -0.0004953698
   46        0.9883032265
   47       -0.0446115180
   48        0.0393770116
   49       -0.0020173269
   50       -0.0015820223
   51        0.0012569118
   52        0.0065521528
   53        0.0048117608
   54       -0.0038286625
   55       -0.0000409820
   56        0.0000058731
   57        0.0000351089
   58       -0.0001509135
   59        0.0001193184
   60        0.0000744198
   61        0.0000039650
   62       -0.0001131117
   63       -0.0026519255
   64       -0.0001908971
   65        0.0000850790
   66       -0.0000636389
   67       -0.0017010623
   68       -0.0052668586
   69        0.0041184851
   70        0.0003669772
   71       -0.0002623154
   72       -0.0001046618
   73        0.0001227470
   74       -0.0000990628
   75        0.0003515711
   76       -0.0000469776
   77        0.0009875903
   78        0.0024546168
   79       -0.0001838647
   80       -0.0000664350
   81        0.0000540976
   82       -0.0003309434
   83       -0.0005206558
   84        0.0004093173
   85        0.0000437733
   86       -0.0000702659
   87        0.0000264927
   88       -0.0000124894
   89        0.0000117167
   90        0.0002205896
   91        0.0001848871
   92        0.0000591792
   93       -0.0000476523
   94        0.0001373541
   95       -0.0001061805
   96        0.0005189666
   97        0.0010225283
   98        0.0002547053
   99       -0.0000994303
  100        0.0001703081
  101        0.0005189794
  102        0.0010225609
  103        0.0002531160
  104       -0.0001927970
  105        0.0000502376
  106        0.0001076594
  107        0.0012976395
  108        0.0003711313
  109       -0.0000458583
  110       -0.0002213351
  111        0.0001076703
  112        0.0012976373
  113        0.0003752763
  114        0.0001984490
  115        0.0000927979
  116       -0.0006170789
  117       -0.0019352882
  118       -0.0002421569
  119        0.0001120171
  120       -0.0000839191
  121        0.0001839439
  122        0.0006934422
  123       -0.0002273553
  124       -0.0000840088
  125        0.0000683377
  126       -0.0000551881
  127       -0.0004711782
  128        0.0000381370
  129       -0.0000484337
  130        0.0000371605
 Sym= 1A
 Ene=         -9.97546718
 Spin= Alpha
 Occup=        2.00000000
    1       -0.0000679757
    2        0.0002251477
    3       -0.0022535842
    4       -0.0000269860
    5       -0.0000656288
    6        0.0000513960
    7       -0.0010459090
    8        0.0002056791
    9       -0.0001461662
   10        0.0000254046
   11       -0.0000346798
   12        0.0000092752
   13        0.0000169213
   14       -0.0000123902
   15        0.0000989901
   16       -0.0001810284
   17        0.0014064731
   18       -0.0169927150
   19        0.0003078319
   20       -0.0014214311
   21        0.0011013638
   22       -0.0055972580
   23        0.0060906310
   24       -0.0046626179
   25       -0.0008347613
   26        0.0007144373
   27        0.0001203240
   28       -0.0001481048
   29        0.0001159774
   30       -0.0013420057
   31       -0.9877031452
   32       -0.0517158798
   33        0.0274863013
   34        0.0011470544
   35        0.0007891432
   36       -0.0006288642
   37        0.0118718074
   38        0.0184198218
   39       -0.0144819219
   40       -0.0012222102
   41        0.0002159966
   42        0.0010062136
   43       -0.0011923873
   44        0.0009806614
   45        0.0018610503
   46       -0.0001770501
   47       -0.0021088630
   48        0.0201373756
   49        0.0009980291
   50        0.0007523327
   51       -0.0005982749
   52        0.0075708719
   53        0.0048786521
   54       -0.0038941800
   55        0.0004839626
   56       -0.0001251165
   57       -0.0003588461
   58        0.0009391144
   59       -0.0007493207
   60       -0.0005820014
   61        0.0000584516
   62        0.0032209622
   63       -0.0201353670
   64       -0.0017000630
   65        0.0006413981
   66       -0.0004763434
   67       -0.0091784961
   68       -0.0088325420
   69        0.0069904092
   70        0.0017472266
   71       -0.0008423437
   72       -0.0009048829
   73       -0.0006548402
   74        0.0004677673
   75       -0.0001080175
   76        0.0001773334
   77        0.0014848337
   78        0.0140316393
   79       -0.0004035607
   80        0.0000802407
   81       -0.0000570723
   82       -0.0021661208
   83       -0.0062009782
   84        0.0048512050
   85        0.0000286430
   86       -0.0000986827
   87        0.0000700397
   88       -0.0000249204
   89        0.0000239737
   90        0.0003848443
   91       -0.0000688485
   92        0.0001759918
   93       -0.0000528933
   94       -0.0000303982
   95        0.0000243422
   96        0.0002151697
   97        0.0000312272
   98        0.0000277687
   99       -0.0000679001
  100       -0.0000083593
  101        0.0002151797
  102        0.0000312594
  103        0.0000287765
  104       -0.0000089807
  105        0.0000673997
  106        0.0002206460
  107       -0.0004218341
  108        0.0001043725
  109        0.0006186321
  110       -0.0004628507
  111        0.0002206448
  112       -0.0004218668
  113        0.0001040432
  114        0.0005996216
  115       -0.0004873268
  116       -0.0008846076
  117       -0.0014171997
  118        0.0005746395
  119       -0.0000669529
  120        0.0000444593
  121        0.0009500598
  122        0.0029910730
  123       -0.0000801392
  124       -0.0001997841
  125        0.0001564163
  126       -0.0009343443
  127       -0.0023354046
  128        0.0001608618
  129        0.0001484001
  130       -0.0001175404
 Sym= 1A
 Ene=         -9.91939008
 Spin= Alpha
 Occup=        2.00000000
    1       -0.0001401311
    2        0.0000717809
    3       -0.0047317416
    4       -0.0001311013
    5        0.0000464292
    6       -0.0000343740
    7       -0.0019363237
    8       -0.0000175258
    9        0.0000392467
   10       -0.0000751509
   11        0.0000379272
   12        0.0000372237
   13        0.0000274642
   14       -0.0000196751
   15       -0.0000030319
   16        0.0002291483
   17       -0.0002454369
   18        0.0137413730
   19        0.0003197034
   20       -0.0002975080
   21        0.0002271496
   22       -0.0018110472
   23       -0.0024234771
   24        0.0019085490
   25       -0.0000240274
   26        0.0000239937
   27        0.0000000338
   28       -0.0000737107
   29        0.0000571793
   30       -0.0000504925
   31       -0.0003224507
   32        0.0013536969
   33       -0.0012009444
   34       -0.0001593809
   35        0.0003749356
   36       -0.0002894841
   37        0.0012372091
   38       -0.0093681781
   39        0.0072692630
   40       -0.0001708384
   41        0.0000840221
   42        0.0000868163
   43        0.0000224512
   44       -0.0000134734
   45        0.0000052511
   46        0.0000489463
   47        0.0006343052
   48       -0.0045647575
   49       -0.0000184444
   50       -0.0000481786
   51        0.0000377144
   52       -0.0012569671
   53        0.0001482825
   54       -0.0000987156
   55       -0.0000597096
   56        0.0000531102
   57        0.0000065993
   58       -0.0000266807
   59        0.0000206929
   60       -0.0001042599
   61       -0.0272641474
   62        0.0033088216
   63       -0.0085120531
   64        0.0025743602
   65        0.0011347982
   66       -0.0009165990
   67        0.0061550398
   68        0.0043291656
   69       -0.0034481519
   70        0.0007846985
   71       -0.0002135776
   72       -0.0005711209
   73        0.0008654300
   74       -0.0007027325
   75       -0.0008597621
   76       -0.9872352387
   77       -0.0512642894
   78        0.0264657449
   79       -0.0003174249
   80       -0.0003046136
   81        0.0002410298
   82        0.0007422316
   83        0.0015315013
   84       -0.0012008372
   85       -0.0014124583
   86        0.0001469943
   87        0.0012654640
   88        0.0000279342
   89        0.0000453013
   90        0.0025417829
   91        0.0002250172
   92        0.0007237109
   93        0.0000983419
   94       -0.0000338860
   95        0.0000250515
   96        0.0000755727
   97       -0.0000227689
   98       -0.0000223599
   99       -0.0000050120
  100       -0.0000346334
  101        0.0000755731
  102       -0.0000227943
  103       -0.0000217213
  104        0.0000326151
  105        0.0000137489
  106       -0.0001467656
  107       -0.0008727957
  108        0.0001659383
  109       -0.0000417695
  110       -0.0000151945
  111       -0.0001467873
  112       -0.0008728640
  113        0.0001666902
  114        0.0000023108
  115        0.0000414813
  116        0.0007957926
  117        0.0024585201
  118       -0.0006666081
  119       -0.0004465552
  120        0.0003561067
  121        0.0047538871
  122       -0.0075328061
  123        0.0004066663
  124       -0.0025869044
  125        0.0020064149
  126        0.0052243310
  127       -0.0068849366
  128       -0.0029548035
  129        0.0011304508
  130       -0.0008400931
 Sym= 1A
 Ene=         -9.91082858
 Spin= Alpha
 Occup=        2.00000000
    1       -0.0004987972
    2       -0.0003918328
    3       -0.0061497123
    4       -0.0002666300
    5        0.0001324447
    6       -0.0000994760
    7       -0.0017718524
    8       -0.0007173074
    9        0.0005812721
   10       -0.0000112696
   11        0.0000102537
   12        0.0000010159
   13       -0.0000030994
   14        0.0000023864
   15       -0.0000208289
   16       -0.0041226279
   17       -0.0010596548
   18        0.0145282946
   19        0.0003765632
   20       -0.0001786364
   21        0.0001339515
   22       -0.0039401971
   23       -0.0021053713
   24        0.0016893546
   25       -0.0001423175
   26        0.0000690397
   27        0.0000732778
   28        0.0000806661
   29       -0.0000593988
   30        0.0000053843
   31       -0.0010764600
   32        0.0029132559
   33       -0.0144648987
   34        0.0018506155
   35       -0.0002844638
   36        0.0001967614
   37        0.0028883619
   38       -0.0050138210
   39        0.0038610516
   40        0.0016530465
   41       -0.0007553085
   42       -0.0008977380
   43       -0.0009397083
   44        0.0006891757
   45       -0.0002742913
   46       -0.0000358695
   47       -0.0002608012
   48        0.0015049191
   49        0.0001391775
   50       -0.0000843377
   51        0.0000637502
   52       -0.0010454557
   53        0.0010721791
   54       -0.0008200132
   55       -0.0001791339
   56        0.0000850913
   57        0.0000940426
   58        0.0000751549
   59       -0.0000541183
   60        0.0000164179
   61       -0.9872980701
   62       -0.0502561837
   63        0.0370770857
   64       -0.0006850184
   65        0.0003425004
   66       -0.0002572729
   67        0.0026742722
   68        0.0049208981
   69       -0.0038623758
   70       -0.0008245410
   71       -0.0000930667
   72        0.0009176076
   73       -0.0004955092
   74        0.0004359560
   75        0.0023243992
   76        0.0261754597
   77        0.0065414759
   78       -0.0188232305
   79       -0.0024190835
   80       -0.0014478474
   81        0.0011580064
   82        0.0040229184
   83        0.0002724827
   84       -0.0002651533
   85        0.0008973786
   86       -0.0002372341
   87       -0.0006601445
   88        0.0008369382
   89       -0.0006851594
   90       -0.0010068739
   91        0.0004456254
   92        0.0013211766
   93        0.0000320238
   94       -0.0000756194
   95        0.0000583844
   96       -0.0000385745
   97        0.0004035716
   98       -0.0000225607
   99        0.0000765202
  100       -0.0000451248
  101       -0.0000385754
  102        0.0004035546
  103       -0.0000227969
  104        0.0000628699
  105       -0.0000626792
  106       -0.0000343225
  107       -0.0014888698
  108        0.0002591524
  109        0.0000686518
  110       -0.0000942155
  111       -0.0000343421
  112       -0.0014888688
  113        0.0002597710
  114        0.0001048948
  115       -0.0000476087
  116        0.0056247336
  117       -0.0060583220
  118       -0.0004800194
  119        0.0025389248
  120       -0.0019681065
  121       -0.0002450175
  122        0.0033135777
  123        0.0002583303
  124        0.0004762735
  125       -0.0003738110
  126       -0.0006215059
  127        0.0008940225
  128        0.0007464185
  129        0.0000893067
  130       -0.0000793188
 Sym= 1A
 Ene=         -9.90548208
 Spin= Alpha
 Occup=        2.00000000
    1        0.0009506031
    2        0.0022231371
    3       -0.0178359476
    4        0.0016602731
    5       -0.0002089001
    6        0.0001405080
    7       -0.0060131479
    8        0.0010786909
    9       -0.0007593632
   10        0.0014900437
   11       -0.0007440147
   12       -0.0007460290
   13       -0.0002960877
   14        0.0001962884
   15        0.0000104333
   16       -0.9873501315
   17       -0.0550751703
   18        0.0629770785
   19       -0.0009847374
   20       -0.0006171870
   21        0.0004930368
   22       -0.0043693349
   23       -0.0034494392
   24        0.0027402916
   25        0.0005319261
   26       -0.0000627597
   27       -0.0004691665
   28       -0.0004835635
   29        0.0003516326
   30       -0.0008981459
   31       -0.0005649136
   32        0.0019480056
   33       -0.0190894019
   34       -0.0004466492
   35        0.0012592361
   36       -0.0009733875
   37        0.0020475990
   38       -0.0041110237
   39        0.0031700271
   40       -0.0008739647
   41        0.0007473976
   42        0.0001265671
   43       -0.0003580874
   44        0.0002794975
   45       -0.0013914437
   46       -0.0000077502
   47       -0.0000169923
   48        0.0016449307
   49        0.0000639024
   50        0.0001245237
   51       -0.0000976841
   52       -0.0003406417
   53       -0.0001748584
   54        0.0001404848
   55       -0.0001644837
   56        0.0000494469
   57        0.0001150368
   58        0.0000092634
   59       -0.0000014080
   60        0.0001486909
   61        0.0042003255
   62       -0.0000900796
   63        0.0023404515
   64        0.0001147756
   65        0.0000663840
   66       -0.0000531443
   67       -0.0021118846
   68        0.0001309808
   69       -0.0000739383
   70        0.0000009860
   71       -0.0000235360
   72        0.0000225501
   73       -0.0000362302
   74        0.0000296095
   75        0.0001067043
   76       -0.0003824287
   77        0.0004104518
   78       -0.0004375828
   79       -0.0001783917
   80        0.0000806934
   81       -0.0000603926
   82        0.0013206230
   83       -0.0015361916
   84        0.0011772150
   85        0.0000043506
   86       -0.0000229411
   87        0.0000185905
   88       -0.0000152365
   89        0.0000130500
   90        0.0000952127
   91        0.0002804878
   92        0.0012182623
   93       -0.0002034848
   94       -0.0000080370
   95        0.0000089344
   96        0.0001419755
   97        0.0004138322
   98       -0.0004960945
   99        0.0000124517
  100       -0.0000553327
  101        0.0001419738
  102        0.0004137597
  103       -0.0004952427
  104        0.0000630434
  105        0.0000097131
  106        0.0030100240
  107       -0.0099390321
  108       -0.0010386232
  109       -0.0023715493
  110       -0.0014467739
  111        0.0030099799
  112       -0.0099389505
  113       -0.0009841992
  114        0.0008311837
  115        0.0026714903
  116       -0.0001824407
  117       -0.0002387557
  118        0.0001378698
  119        0.0000045272
  120       -0.0000053432
  121        0.0001388445
  122        0.0018496336
  123        0.0001051024
  124       -0.0000838351
  125        0.0000638064
  126       -0.0003334549
  127       -0.0010207704
  128        0.0000735865
  129        0.0000144670
  130       -0.0000122206
 Sym= 1A
 Ene=         -9.88727796
 Spin= Alpha
 Occup=        2.00000000
    1        0.9873411615
    2        0.0544347651
    3       -0.0465265876
    4       -0.0010191524
    5        0.0000918950
    6       -0.0000579758
    7       -0.0020904384
    8        0.0019294978
    9       -0.0014729516
   10       -0.0007730503
   11        0.0003979427
   12        0.0003751076
   13        0.0002154610
   14       -0.0001506957
   15       -0.0000628797
   16        0.0017330390
   17       -0.0014895516
   18        0.0082041718
   19        0.0016073655
   20       -0.0003160022
   21        0.0002245056
   22       -0.0017729567
   23        0.0008921566
   24       -0.0006703410
   25       -0.0015488333
   26        0.0007545265
   27        0.0007943067
   28        0.0004577239
   29       -0.0003195788
   30        0.0000667697
   31       -0.0000506148
   32       -0.0004693857
   33       -0.0036884574
   34        0.0004174569
   35       -0.0000689813
   36        0.0000481261
   37       -0.0054322022
   38        0.0019587190
   39       -0.0014514851
   40        0.0000601606
   41       -0.0000129708
   42       -0.0000471898
   43       -0.0000871857
   44        0.0000654267
   45       -0.0000731409
   46       -0.0000564974
   47       -0.0005235966
   48        0.0004565246
   49        0.0000777288
   50       -0.0001602598
   51        0.0001236012
   52        0.0002464768
   53        0.0003307619
   54       -0.0002604745
   55        0.0000755228
   56       -0.0000138224
   57       -0.0000617005
   58       -0.0000059475
   59        0.0000014147
   60       -0.0001085536
   61       -0.0005882842
   62        0.0002222053
   63        0.0051030551
   64       -0.0000414211
   65        0.0000780504
   66       -0.0000601517
   67       -0.0035288435
   68        0.0002999837
   69       -0.0001866473
   70        0.0000448643
   71       -0.0000127015
   72       -0.0000321628
   73       -0.0000231223
   74        0.0000163670
   75       -0.0000430212
   76       -0.0001528577
   77        0.0001405851
   78        0.0012015366
   79       -0.0000709888
   80        0.0000117078
   81       -0.0000081675
   82        0.0004937787
   83       -0.0003512032
   84        0.0002666146
   85       -0.0000099092
   86        0.0000150773
   87       -0.0000051682
   88       -0.0000467516
   89        0.0000359901
   90       -0.0000435069
   91       -0.0039063671
   92        0.0074704105
   93       -0.0002516486
   94        0.0023818687
   95       -0.0018490375
   96       -0.0031163089
   97        0.0088364875
   98       -0.0010245155
   99       -0.0024909163
  100       -0.0009968830
  101       -0.0031161976
  102        0.0088363158
  103       -0.0009759619
  104        0.0003656298
  105        0.0026761974
  106       -0.0001526381
  107        0.0003238611
  108       -0.0006191614
  109        0.0000601485
  110        0.0000222822
  111       -0.0001526308
  112        0.0003239267
  113       -0.0006201680
  114        0.0000011524
  115       -0.0000535756
  116       -0.0001552444
  117       -0.0002014967
  118        0.0001193990
  119        0.0000065866
  120       -0.0000067006
  121        0.0001983114
  122       -0.0007725848
  123        0.0000308988
  124        0.0000682451
  125       -0.0000534829
  126       -0.0001802927
  127       -0.0003013886
  128       -0.0000119221
  129       -0.0000357932
  130        0.0000279935
 Sym= 1A
 Ene=         -0.93251003
 Spin= Alpha
 Occup=        2.00000000
    1       -0.0091050427
    2        0.0151076957
    3        0.0144629001
    4        0.0070161943
    5       -0.0047254239
    6        0.0035822046
    7        0.0079504186
    8       -0.0043184284
    9        0.0032540452
   10        0.0006910680
   11       -0.0001782302
   12       -0.0005128378
   13       -0.0010252669
   14        0.0007718387
   15       -0.0007059267
   16       -0.0263419438
   17        0.0496335708
   18        0.0023988766
   19       -0.0037615403
   20       -0.0205821289
   21        0.0160562639
   22        0.0085514288
   23       -0.0056178557
   24        0.0042544732
   25       -0.0014966905
   26        0.0014990286
   27       -0.0000023381
   28       -0.0003768442
   29        0.0002810035
   30       -0.0033918293
   31       -0.1550252256
   32        0.3067676005
   33        0.0434247443
   34       -0.1282217361
   35       -0.1000877057
   36        0.0795331220
   37       -0.0193156993
   38       -0.0151792390
   39        0.0120594057
   40        0.0076332092
   41       -0.0013394542
   42       -0.0062937551
   43        0.0165057591
   44       -0.0131764264
   45       -0.0121525518
   46        0.2489860984
   47        0.4966206744
   48        0.2461591348
   49        0.1209511090
   50        0.0920018443
   51       -0.0731485959
   52        0.0229467950
   53        0.0166528511
   54       -0.0132541344
   55        0.0022316325
   56       -0.0005492349
   57       -0.0016823976
   58        0.0098996413
   59       -0.0077920841
   60       -0.0031089311
   61       -0.0292712563
   62        0.0532688076
   63        0.0170451602
   64       -0.0295441404
   65        0.0016957634
   66       -0.0009283514
   67       -0.0042652996
   68        0.0086654502
   69       -0.0066822334
   70        0.0045329285
   71       -0.0022315876
   72       -0.0023013409
   73       -0.0007655065
   74        0.0004898329
   75       -0.0001200862
   76       -0.0057742525
   77        0.0100781180
   78       -0.0042852182
   79       -0.0059355811
   80       -0.0017732282
   81        0.0014575193
   82        0.0025233278
   83       -0.0002448704
   84        0.0001569624
   85        0.0008879147
   86       -0.0004242716
   87       -0.0004636431
   88        0.0005751571
   89       -0.0004692492
   90       -0.0001209090
   91        0.0021934462
   92        0.0018957774
   93        0.0000794437
   94       -0.0003553947