[Molden Format]
[Title]
 Generated by Molden2AIM, Version 5.1.2 (07/17/2025)           Time: Thu Feb 12 13:55:03 2026

[Atoms] AU
  C      1    6       -3.6728528166        1.4512529791       -1.0800729718
  C      2    6       -0.8542884934        0.9983612138       -0.7651123171
  C      3    6       -0.2956287564       -1.2268857952        0.9580533554
  O      4    8       -1.9642758299       -2.4941739351        1.9656742272
  C      5    6        2.3840217988       -1.9307709856        1.4700368568
  C      6    6        4.4090901184       -0.7483504463        0.5236809062
  H      7    1       -4.0073154451        3.0643798988       -2.3301646040
  H      8    1       -4.6050169240       -0.2051486691       -1.8984188741
  H      9    1       -4.5701136823        1.8482466453        0.7419253774
  H     10    1        0.0129635213        2.6959021999        0.0407424954
  H     11    1       -0.0222420766        0.6244600010       -2.6228264903
  H     12    1        2.6071417634       -3.5432176038        2.7210544548
  H     13    1        4.2835745086        0.8667984804       -0.7307381987
  H     14    1        6.2949423138       -1.4008539831        1.0062035773
[GTO]
    1    0
 S    5  1.0
    0.1238401694D+04    0.5517365039D-02
    0.1862900499D+03    0.4108882856D-01
    0.4225117635D+02    0.1822538213D+00
    0.1167655793D+02    0.4682845944D+00
    0.3593050648D+01    0.4457581733D+00
 S    1  1.0
    0.4024514736D+00    0.1000000000D+01
 S    1  1.0
    0.1309018267D+00    0.1000000000D+01
 P    3  1.0
    0.9468097062D+01    0.5688833197D-01
    0.2010354514D+01    0.3129405934D+00
    0.5477100471D+00    0.7606501651D+00
 P    1  1.0
    0.1526861379D+00    0.1000000000D+01
 D    1  1.0
    0.8000000000D+00    0.1000000000D+01

    2    0
 S    5  1.0
    0.1238401694D+04    0.5517365039D-02
    0.1862900499D+03    0.4108882856D-01
    0.4225117635D+02    0.1822538213D+00
    0.1167655793D+02    0.4682845944D+00
    0.3593050648D+01    0.4457581733D+00
 S    1  1.0
    0.4024514736D+00    0.1000000000D+01
 S    1  1.0
    0.1309018267D+00    0.1000000000D+01
 P    3  1.0
    0.9468097062D+01    0.5688833197D-01
    0.2010354514D+01    0.3129405934D+00
    0.5477100471D+00    0.7606501651D+00
 P    1  1.0
    0.1526861379D+00    0.1000000000D+01
 D    1  1.0
    0.8000000000D+00    0.1000000000D+01

    3    0
 S    5  1.0
    0.1238401694D+04    0.5517365039D-02
    0.1862900499D+03    0.4108882856D-01
    0.4225117635D+02    0.1822538213D+00
    0.1167655793D+02    0.4682845944D+00
    0.3593050648D+01    0.4457581733D+00
 S    1  1.0
    0.4024514736D+00    0.1000000000D+01
 S    1  1.0
    0.1309018267D+00    0.1000000000D+01
 P    3  1.0
    0.9468097062D+01    0.5688833197D-01
    0.2010354514D+01    0.3129405934D+00
    0.5477100471D+00    0.7606501651D+00
 P    1  1.0
    0.1526861379D+00    0.1000000000D+01
 D    1  1.0
    0.8000000000D+00    0.1000000000D+01

    4    0
 S    5  1.0
    0.2266176779D+04   -0.5389350397D-02
    0.3408701019D+03   -0.4023472136D-01
    0.7736313517D+02   -0.1800818421D+00
    0.2147964494D+02   -0.4682885765D+00
    0.6658943312D+01   -0.4469261716D+00
 S    1  1.0
    0.8097597567D+00    0.1000000000D+01
 S    1  1.0
    0.2553077223D+00    0.1000000000D+01
 P    3  1.0
    0.1772150432D+02    0.6263024876D-01
    0.3863550544D+01    0.3333113849D+00
    0.1048092088D+01    0.7414863831D+00
 P    1  1.0
    0.2764154441D+00    0.1000000000D+01
 D    1  1.0
    0.1200000000D+01    0.1000000000D+01

    5    0
 S    5  1.0
    0.1238401694D+04    0.5517365039D-02
    0.1862900499D+03    0.4108882856D-01
    0.4225117635D+02    0.1822538213D+00
    0.1167655793D+02    0.4682845944D+00
    0.3593050648D+01    0.4457581733D+00
 S    1  1.0
    0.4024514736D+00    0.1000000000D+01
 S    1  1.0
    0.1309018267D+00    0.1000000000D+01
 P    3  1.0
    0.9468097062D+01    0.5688833197D-01
    0.2010354514D+01    0.3129405934D+00
    0.5477100471D+00    0.7606501651D+00
 P    1  1.0
    0.1526861379D+00    0.1000000000D+01
 D    1  1.0
    0.8000000000D+00    0.1000000000D+01

    6    0
 S    5  1.0
    0.1238401694D+04    0.5517365039D-02
    0.1862900499D+03    0.4108882856D-01
    0.4225117635D+02    0.1822538213D+00
    0.1167655793D+02    0.4682845944D+00
    0.3593050648D+01    0.4457581733D+00
 S    1  1.0
    0.4024514736D+00    0.1000000000D+01
 S    1  1.0
    0.1309018267D+00    0.1000000000D+01
 P    3  1.0
    0.9468097062D+01    0.5688833197D-01
    0.2010354514D+01    0.3129405934D+00
    0.5477100471D+00    0.7606501651D+00
 P    1  1.0
    0.1526861379D+00    0.1000000000D+01
 D    1  1.0
    0.8000000000D+00    0.1000000000D+01

    7    0
 S    3  1.0
    0.1301070100D+02    0.3348548481D-01
    0.1962257200D+01    0.2347218709D+00
    0.4445379600D+00    0.8137702852D+00
 S    1  1.0
    0.1219496200D+00    0.1000000000D+01
 P    1  1.0
    0.8000000000D+00    0.1000000000D+01

    8    0
 S    3  1.0
    0.1301070100D+02    0.3348548481D-01
    0.1962257200D+01    0.2347218709D+00
    0.4445379600D+00    0.8137702852D+00
 S    1  1.0
    0.1219496200D+00    0.1000000000D+01
 P    1  1.0
    0.8000000000D+00    0.1000000000D+01

    9    0
 S    3  1.0
    0.1301070100D+02    0.3348548481D-01
    0.1962257200D+01    0.2347218709D+00
    0.4445379600D+00    0.8137702852D+00
 S    1  1.0
    0.1219496200D+00    0.1000000000D+01
 P    1  1.0
    0.8000000000D+00    0.1000000000D+01

   10    0
 S    3  1.0
    0.1301070100D+02    0.3348548481D-01
    0.1962257200D+01    0.2347218709D+00
    0.4445379600D+00    0.8137702852D+00
 S    1  1.0
    0.1219496200D+00    0.1000000000D+01
 P    1  1.0
    0.8000000000D+00    0.1000000000D+01

   11    0
 S    3  1.0
    0.1301070100D+02    0.3348548481D-01
    0.1962257200D+01    0.2347218709D+00
    0.4445379600D+00    0.8137702852D+00
 S    1  1.0
    0.1219496200D+00    0.1000000000D+01
 P    1  1.0
    0.8000000000D+00    0.1000000000D+01

   12    0
 S    3  1.0
    0.1301070100D+02    0.3348548481D-01
    0.1962257200D+01    0.2347218709D+00
    0.4445379600D+00    0.8137702852D+00
 S    1  1.0
    0.1219496200D+00    0.1000000000D+01
 P    1  1.0
    0.8000000000D+00    0.1000000000D+01

   13    0
 S    3  1.0
    0.1301070100D+02    0.3348548481D-01
    0.1962257200D+01    0.2347218709D+00
    0.4445379600D+00    0.8137702852D+00
 S    1  1.0
    0.1219496200D+00    0.1000000000D+01
 P    1  1.0
    0.8000000000D+00    0.1000000000D+01

   14    0
 S    3  1.0
    0.1301070100D+02    0.3348548481D-01
    0.1962257200D+01    0.2347218709D+00
    0.4445379600D+00    0.8137702852D+00
 S    1  1.0
    0.1219496200D+00    0.1000000000D+01
 P    1  1.0
    0.8000000000D+00    0.1000000000D+01

[MO]
 Sym= 1A
 Ene=        -18.82532423
 Spin= Alpha
 Occup=        1.00000000
    1       -0.0000551116
    2        0.0007471618
    3       -0.0086801066
    4       -0.0000206824
    5       -0.0000550120
    6        0.0000430620
    7       -0.0029077147
    8        0.0005718897
    9       -0.0004063991
   10       -0.0000787695
   11        0.0000866381
   12       -0.0000078686
   13       -0.0001279148
   14        0.0000984417
   15       -0.0002079177
   16       -0.0000082971
   17       -0.0003177236
   18       -0.0031298177
   19       -0.0000216164
   20       -0.0001215264
   21        0.0000947940
   22       -0.0087894416
   23        0.0026229910
   24       -0.0019236412
   25       -0.0002015010
   26        0.0001024858
   27        0.0000990151
   28        0.0004078958
   29       -0.0003129884
   30       -0.0000296663
   31       -0.0001552613
   32       -0.0033023774
   33       -0.0080466278
   34       -0.0005279877
   35       -0.0004982655
   36        0.0003944833
   37        0.0138525676
   38        0.0135791703
   39       -0.0107435658
   40        0.0002426061
   41       -0.0000259527
   42       -0.0002166534
   43        0.0011814056
   44       -0.0009310625
   45       -0.0004970817
   46        0.9881236751
   47       -0.0453739514
   48        0.0403977820
   49       -0.0020553635
   50       -0.0016031531
   51        0.0012738492
   52        0.0067751585
   53        0.0049685809
   54       -0.0039535706
   55       -0.0000807194
   56        0.0000093683
   57        0.0000713512
   58        0.0000220035
   59       -0.0000133212
   60        0.0001394805
   61        0.0000046415
   62       -0.0001209616
   63       -0.0027162823
   64       -0.0001906323
   65        0.0000872699
   66       -0.0000653455
   67       -0.0018150607
   68       -0.0054104867
   69        0.0042316889
   70        0.0003736535
   71       -0.0002673131
   72       -0.0001063404
   73        0.0001243462
   74       -0.0001003580
   75        0.0003590267
   76       -0.0000485285
   77        0.0010172722
   78        0.0025675553
   79       -0.0001903593
   80       -0.0000683180
   81        0.0000556479
   82       -0.0003425381
   83       -0.0005594588
   84        0.0004396495
   85        0.0000439669
   86       -0.0000713936
   87        0.0000274267
   88       -0.0000120800
   89        0.0000114573
   90        0.0002252531
   91        0.0001942911
   92        0.0000708440
   93       -0.0000491777
   94        0.0001391328
   95       -0.0001075435
   96        0.0005265358
   97        0.0010485476
   98        0.0002601746
   99       -0.0001003023
  100        0.0001727344
  101        0.0005265481
  102        0.0010485820
  103        0.0002585551
  104       -0.0001954328
  105        0.0000503951
  106        0.0001100528
  107        0.0013295897
  108        0.0003796558
  109       -0.0000458661
  110       -0.0002275739
  111        0.0001100647
  112        0.0013295895
  113        0.0003839013
  114        0.0002043841
  115        0.0000942009
  116       -0.0006380927
  117       -0.0019800810
  118       -0.0002441812
  119        0.0001150106
  120       -0.0000862202
  121        0.0001919918
  122        0.0007176490
  123       -0.0002327945
  124       -0.0000858940
  125        0.0000698757
  126       -0.0000603276
  127       -0.0004932369
  128        0.0000392667
  129       -0.0000490357
  130        0.0000376136
 Sym= 1A
 Ene=         -9.95992531
 Spin= Alpha
 Occup=        1.00000000
    1       -0.0000969058
    2        0.0002682093
    3       -0.0024465600
    4       -0.0000232555
    5       -0.0000722432
    6        0.0000564906
    7       -0.0011246399
    8        0.0002836350
    9       -0.0002057545
   10        0.0000235133
   11       -0.0000338306
   12        0.0000103174
   13        0.0000185794
   14       -0.0000136321
   15        0.0000993406
   16        0.0003009352
   17        0.0014514162
   18       -0.0173567490
   19        0.0003048730
   20       -0.0014370247
   21        0.0011135288
   22       -0.0057641783
   23        0.0062437782
   24       -0.0047795008
   25       -0.0008484948
   26        0.0007252017
   27        0.0001232931
   28       -0.0001408179
   29        0.0001103786
   30       -0.0013601079
   31       -0.9874944422
   32       -0.0526860236
   33        0.0279317714
   34        0.0016038046
   35        0.0009281447
   36       -0.0007429876
   37        0.0119358787
   38        0.0188605463
   39       -0.0148255281
   40       -0.0011877756
   41        0.0002065986
   42        0.0009811770
   43       -0.0012389043
   44        0.0010156044
   45        0.0018279690
   46       -0.0001794327
   47       -0.0022136245
   48        0.0207740574
   49        0.0010297793
   50        0.0007797392
   51       -0.0006200089
   52        0.0078793154
   53        0.0050708383
   54       -0.0040477170
   55        0.0005115186
   56       -0.0001293888
   57       -0.0003821298
   58        0.0010207775
   59       -0.0008141067
   60       -0.0006296186
   61        0.0002153098
   62        0.0032549655
   63       -0.0203668906
   64       -0.0016934265
   65        0.0006404027
   66       -0.0004756575
   67       -0.0093150332
   68       -0.0090307845
   69        0.0071463871
   70        0.0017405434
   71       -0.0008411010
   72       -0.0008994423
   73       -0.0006392946
   74        0.0004559509
   75       -0.0000993056
   76        0.0001214036
   77        0.0015049160
   78        0.0142739174
   79       -0.0004072509
   80        0.0000799371
   81       -0.0000567872
   82       -0.0022439261
   83       -0.0062620763
   84        0.0048997513
   85        0.0000285895
   86       -0.0000991936
   87        0.0000706041
   88       -0.0000265488
   89        0.0000252756
   90        0.0003873762
   91       -0.0000801534
   92        0.0001426615
   93       -0.0000526253
   94       -0.0000272481
   95        0.0000218892
   96        0.0002382260
   97        0.0000536842
   98        0.0000326567
   99       -0.0000734805
  100       -0.0000026709
  101        0.0002382358
  102        0.0000537182
  103        0.0000336411
  104       -0.0000159304
  105        0.0000713271
  106        0.0002267205
  107       -0.0004067950
  108        0.0001105362
  109        0.0006254023
  110       -0.0004682762
  111        0.0002267214
  112       -0.0004068208
  113        0.0001102072
  114        0.0006064684
  115       -0.0004926541
  116       -0.0009093857
  117       -0.0014805070
  118        0.0005804122
  119       -0.0000675934
  120        0.0000448811
  121        0.0009529249
  122        0.0030190701
  123       -0.0000831813
  124       -0.0002016294
  125        0.0001578916
  126       -0.0009389271
  127       -0.0023528552
  128        0.0001641331
  129        0.0001505963
  130       -0.0001192918
 Sym= 1A
 Ene=         -9.93333906
 Spin= Alpha
 Occup=        1.00000000
    1        0.0004116553
    2        0.0021926156
    3       -0.0178031218
    4        0.0016538997
    5       -0.0002111360
    6        0.0001423303
    7       -0.0060077867
    8        0.0010975914
    9       -0.0007741311
   10        0.0014828529
   11       -0.0007400107
   12       -0.0007428423
   13       -0.0002987454
   14        0.0001984959
   15        0.0000087246
   16       -0.9873729587
   17       -0.0549810573
   18        0.0627511655
   19       -0.0009065287
   20       -0.0003252382
   21        0.0002649710
   22       -0.0043929653
   23       -0.0034753295
   24        0.0027607389
   25        0.0005629684
   26       -0.0001072475
   27       -0.0004557209
   28       -0.0004504716
   29        0.0003269635
   30       -0.0007682679
   31       -0.0010693409
   32        0.0019660643
   33       -0.0191287014
   34       -0.0004455711
   35        0.0012920643
   36       -0.0009989332
   37        0.0019460001
   38       -0.0039197726
   39        0.0030226384
   40       -0.0008997439
   41        0.0007738691
   42        0.0001258747
   43       -0.0003860306
   44        0.0003009964
   45       -0.0014516785
   46       -0.0000074471
   47       -0.0000135278
   48        0.0016878942
   49        0.0000636695
   50        0.0001323691
   51       -0.0001037825
   52       -0.0003163277
   53       -0.0002005529
   54        0.0001601458
   55       -0.0001688019
   56        0.0000511666
   57        0.0001176353
   58        0.0000116174
   59       -0.0000031143
   60        0.0001505643
   61       -0.0007716353
   62       -0.0003297618
   63        0.0025361901
   64        0.0001094274
   65        0.0000736115
   66       -0.0000586937
   67       -0.0022789854
   68        0.0000649864
   69       -0.0000204084
   70       -0.0000023965
   71       -0.0000246750
   72        0.0000270715
   73       -0.0000435484
   74        0.0000355592
   75        0.0001199662
   76        0.0000544825
   77        0.0004780089
   78       -0.0003862612
   79       -0.0001962401
   80        0.0000717498
   81       -0.0000532009
   82        0.0012995156
   83       -0.0015877286
   84        0.0012175758
   85        0.0000107270
   86       -0.0000250381
   87        0.0000143111
   88       -0.0000101227
   89        0.0000088555
   90        0.0000899729
   91        0.0002756455
   92        0.0012200168
   93       -0.0001977015
   94       -0.0000098995
   95        0.0000103061
   96        0.0001473749
   97        0.0004064365
   98       -0.0004980950
   99        0.0000140879
  100       -0.0000544214
  101        0.0001473724
  102        0.0004063637
  103       -0.0004972787
  104        0.0000625886
  105        0.0000079360
  106        0.0029337611
  107       -0.0099072811
  108       -0.0010078300
  109       -0.0023090907
  110       -0.0014158762
  111        0.0029337246
  112       -0.0099071978
  113       -0.0009547239
  114        0.0008162306
  115        0.0026028569
  116       -0.0001709950
  117       -0.0002996469
  118        0.0001386747
  119        0.0000185155
  120       -0.0000162320
  121        0.0001412451
  122        0.0018844906
  123        0.0001058301
  124       -0.0000817312
  125        0.0000621605
  126       -0.0003430856
  127       -0.0010270380
  128        0.0000792444
  129        0.0000155082
  130       -0.0000131053
 Sym= 1A
 Ene=         -9.90604497
 Spin= Alpha
 Occup=        1.00000000
    1       -0.0046438894
    2       -0.0006414043
    3       -0.0060083162
    4       -0.0002764774
    5        0.0001366052
    6       -0.0001025809
    7       -0.0017912594
    8       -0.0007657769
    9        0.0006192203
   10       -0.0000175121
   11        0.0000135238
   12        0.0000039883
   13       -0.0000036853
   14        0.0000029765
   15       -0.0000214708
   16        0.0008489726
   17       -0.0007777306
   18        0.0145533987
   19        0.0003870163
   20       -0.0001869844
   21        0.0001403055
   22       -0.0040184721
   23       -0.0021428165
   24        0.0017195043
   25       -0.0001423341
   26        0.0000685148
   27        0.0000738193
   28        0.0000798889
   29       -0.0000587601
   30        0.0000078525
   31       -0.0012519812
   32        0.0029648928
   33       -0.0142388548
   34        0.0018967921
   35       -0.0002948705
   36        0.0002042364
   37        0.0031387426
   38       -0.0052750362
   39        0.0040608969
   40        0.0017197834
   41       -0.0007890487
   42       -0.0009307347
   43       -0.0009728748
   44        0.0007134717
   45       -0.0002708453
   46       -0.0000332497
   47       -0.0002323877
   48        0.0013939827
   49        0.0001483167
   50       -0.0000869498
   51        0.0000656605
   52       -0.0011129599
   53        0.0010986742
   54       -0.0008397240
   55       -0.0001801406
   56        0.0000856979
   57        0.0000944426
   58        0.0000773584
   59       -0.0000558165
   60        0.0000158257
   61       -0.9876726190
   62       -0.0499131837
   63        0.0361837563
   64       -0.0001455916
   65        0.0003465834
   66       -0.0002674148
   67        0.0026792812
   68        0.0049862365
   69       -0.0039133347
   70       -0.0009016191
   71       -0.0000474506
   72        0.0009490697
   73       -0.0003922829
   74        0.0003568674
   75        0.0022867757
   76       -0.0094154855
   77        0.0046022984
   78       -0.0175068338
   79       -0.0023644389
   80       -0.0014173849
   81        0.0011335856
   82        0.0039919632
   83        0.0002380654
   84       -0.0002379522
   85        0.0008136943
   86       -0.0002197620
   87       -0.0005939323
   88        0.0007891755
   89       -0.0006445464
   90       -0.0008934620
   91        0.0004746172
   92        0.0013239379
   93        0.0000357156
   94       -0.0000871219
   95        0.0000672815
   96       -0.0000291136
   97        0.0003597356
   98       -0.0000161271
   99        0.0000883104
  100       -0.0000438675
  101       -0.0000291130
  102        0.0003597188
  103       -0.0000165365
  104        0.0000644738
  105       -0.0000745207
  106       -0.0000507056
  107       -0.0014644186
  108        0.0002752223
  109        0.0000802419
  110       -0.0000895198
  111       -0.0000507251
  112       -0.0014644295
  113        0.0002756118
  114        0.0001029942
  115       -0.0000602623
  116        0.0055909186
  117       -0.0059047626
  118       -0.0004904253
  119        0.0024778735
  120       -0.0019204919
  121       -0.0000620137
  122        0.0030477485
  123        0.0002754211
  124        0.0003787451
  125       -0.0002981927
  126       -0.0004456776
  127        0.0006186457
  128        0.0006359132
  129        0.0001331335
  130       -0.0001119450
 Sym= 1A
 Ene=         -9.90324092
 Spin= Alpha
 Occup=        1.00000000
    1        0.9873248097
    2        0.0544586892
    3       -0.0465809069
    4       -0.0010287255
    5        0.0000729993
    6       -0.0000431328
    7       -0.0021008793
    8        0.0019387880
    9       -0.0014800455
   10       -0.0007731904
   11        0.0003986851
   12        0.0003745053
   13        0.0002143371
   14       -0.0001498650
   15       -0.0000658919
   16        0.0011994745
   17       -0.0015252852
   18        0.0083139984
   19        0.0016099722
   20       -0.0003174222
   21        0.0002255756
   22       -0.0017978310
   23        0.0008795336
   24       -0.0006601985
   25       -0.0015497955
   26        0.0007551846
   27        0.0007946109
   28        0.0004572057
   29       -0.0003191647
   30        0.0000659917
   31       -0.0000824272
   32       -0.0004578644
   33       -0.0037580054
   34        0.0004249910
   35       -0.0000695426
   36        0.0000484636
   37       -0.0054131594
   38        0.0019328952
   39       -0.0014316559
   40        0.0000672782
   41       -0.0000160580
   42       -0.0000512203
   43       -0.0000915901
   44        0.0000686628
   45       -0.0000750521
   46       -0.0000567835
   47       -0.0005255151
   48        0.0004660951
   49        0.0000790890
   50       -0.0001612055
   51        0.0001243186
   52        0.0002400476
   53        0.0003371769
   54       -0.0002653777
   55        0.0000747834
   56       -0.0000134351
   57       -0.0000613484
   58       -0.0000058171
   59        0.0000013292
   60       -0.0001086399
   61       -0.0047290380
   62        0.0000113810
   63        0.0052530773
   64       -0.0000427983
   65        0.0000791202
   66       -0.0000609646
   67       -0.0035168452
   68        0.0003198630
   69       -0.0002022652
   70        0.0000407464
   71       -0.0000128113
   72       -0.0000279351
   73       -0.0000251006
   74        0.0000181354
   75       -0.0000330529
   76        0.0001351709
   77        0.0001768926
   78        0.0011167039
   79       -0.0000806888
   80        0.0000058877
   81       -0.0000035128
   82        0.0005096696
   83       -0.0003515061
   84        0.0002666391
   85       -0.0000060055
   86        0.0000140667
   87       -0.0000080612
   88       -0.0000433867
   89        0.0000332231
   90       -0.0000479687
   91       -0.0039042350
   92        0.0074712342
   93       -0.0002506674
   94        0.0023801937
   95       -0.0018477482
   96       -0.0031206778
   97        0.0088438873
   98       -0.0010270559
   99       -0.0024949037
  100       -0.0009998055
  101       -0.0031205772
  102        0.0088437207
  103       -0.0009784073
  104        0.0003675156
  105        0.0026808310
  106       -0.0001510115
  107        0.0003099528
  108       -0.0006180498
  109        0.0000591665
  110        0.0000209333
  111       -0.0001510050
  112        0.0003100126
  113       -0.0006190207
  114        0.0000022034
  115       -0.0000523111
  116       -0.0001318943
  117       -0.0002264184
  118        0.0001174872
  119        0.0000171256
  120       -0.0000148714
  121        0.0001960725
  122       -0.0007538532
  123        0.0000319489
  124        0.0000704834
  125       -0.0000552376
  126       -0.0001836832
  127       -0.0002964043
  128       -0.0000082143
  129       -0.0000355262
  130        0.0000277370
 Sym= 1A
 Ene=         -9.88020862
 Spin= Alpha
 Occup=        1.00000000
    1       -0.0002058231
    2       -0.0001122389
    3        0.0046532307
    4        0.0001234969
    5       -0.0000417521
    6        0.0000308371
    7        0.0019231488
    8       -0.0000220827
    9       -0.0000082701
   10        0.0000764261
   11       -0.0000383781
   12       -0.0000380480
   13       -0.0000283496
   14        0.0000203237
   15        0.0000022303
   16        0.0001082818
   17        0.0002365680
   18       -0.0134981359
   19       -0.0003146464
   20        0.0002976145
   21       -0.0002272993
   22        0.0017204002
   23        0.0023837745
   24       -0.0018764771
   25        0.0000178978
   26       -0.0000215001
   27        0.0000036023
   28        0.0000798142
   29       -0.0000617545
   30        0.0000527658
   31        0.0002305012
   32       -0.0012889731
   33        0.0007627025
   34        0.0002246659
   35       -0.0003912067
   36        0.0003012748
   37       -0.0010812682
   38        0.0093413810
   39       -0.0072504819
   40        0.0002306234
   41       -0.0001111198
   42       -0.0001195037
   43       -0.0000615523
   44        0.0000423661
   45       -0.0000158919
   46       -0.0000518684
   47       -0.0006626147
   48        0.0047312255
   49        0.0000238528
   50        0.0000460399
   51       -0.0000361226
   52        0.0012453236
   53       -0.0001008668
   54        0.0000619935
   55        0.0000536563
   56       -0.0000502525
   57       -0.0000034038
   58        0.0000312605
   59       -0.0000241086
   60        0.0001047858
   61       -0.0083360899
   62       -0.0051675048
   63        0.0099886436
   64       -0.0026323993
   65       -0.0011414965
   66        0.0009225742
   67       -0.0060857208
   68       -0.0042392102
   69        0.0033772745
   70       -0.0008337833
   71        0.0002177754
   72        0.0006160079
   73       -0.0009170828
   74        0.0007453186
   75        0.0009550370
   76        0.9874430466
   77        0.0518804398
   78       -0.0274783253
   79        0.0000910407
   80        0.0001725292
   81       -0.0001352551
   82       -0.0005393484
   83       -0.0014926525
   84        0.0011679186
   85        0.0014062459
   86       -0.0001603282
   87       -0.0012459177
   88        0.0000259233
   89       -0.0000860883
   90       -0.0024699496
   91       -0.0002103969
   92       -0.0006873796
   93       -0.0000990755
   94        0.0000305485
   95       -0.0000224461
   96       -0.0000800313
   97        0.0000298957
   98        0.0000221533
   99        0.0000091489
  100        0.0000332627
  101       -0.0000800312
  102        0.0000299212
  103        0.0000214844
  104       -0.0000302650
  105       -0.0000174174
  106        0.0001430801
  107        0.0008409540
  108       -0.0001593457
  109        0.0000480506
  110        0.0000116882
  111        0.0001431021
  112        0.0008410175
  113       -0.0001601218
  114        0.0000025498
  115       -0.0000468146
  116       -0.0006196892
  117       -0.0027271131
  118        0.0006510335
  119        0.0005393293
  120       -0.0004280493
  121       -0.0047319670
  122        0.0077079902
  123       -0.0003993784
  124        0.0025938375
  125       -0.0020119058
  126       -0.0052314305
  127        0.0069786464
  128        0.0029740665
  129       -0.0011267743
  130        0.0008369802
 Sym= 1A
 Ene=         -0.99919078
 Spin= Alpha
 Occup=        1.00000000
    1        0.0065927364
    2       -0.0097237140
    3       -0.0145755024
    4       -0.0050539015
    5        0.0036621678
    6       -0.0027811553
    7       -0.0074590298
    8        0.0060133268
    9       -0.0045782267
   10       -0.0005392883
   11        0.0001364466
   12        0.0004028418
   13        0.0008186933
   14       -0.0006165902
   15        0.0005616013
   16        0.0199006475
   17       -0.0369124600
   18        0.0026262407
   19        0.0038061967
   20        0.0172520225
   21       -0.0134668729
   22       -0.0072489085
   23        0.0044643831
   24       -0.0033762348
   25        0.0015371788
   26       -0.0014869895
   27       -0.0000501893
   28        0.0001989852
   29       -0.0001455845
   30        0.0032541509
   31        0.1396740073
   32       -0.2701168150
   33       -0.0155253454
   34        0.1264858656
   35        0.0954389681
   36       -0.0758944163
   37        0.0188828510
   38        0.0055738935
   39       -0.0045833844
   40       -0.0078275240
   41        0.0014750537
   42        0.0063524704
   43       -0.0159377556
   44        0.0127365821
   45        0.0119466485
   46       -0.2640970193
   47       -0.5362633471
   48       -0.2687173286
   49       -0.1179906388
   50       -0.0906138824
   51        0.0720301640
   52       -0.0234739832
   53       -0.0174568132
   54        0.0138859793
   55       -0.0051293869
   56        0.0007999850
   57        0.0043294019
   58       -0.0029568288
   59        0.0025302079
   60        0.0081794819
   61        0.0202942399
   62       -0.0357354125
   63       -0.0150000362
   64        0.0235601841
   65       -0.0005176554
   66        0.0000916571
   67        0.0153116088
   68       -0.0040933842
   69        0.0029810256
   70       -0.0041060092
   71        0.0020184216
   72        0.0020875877
   73        0.0007631141
   74       -0.0004980275
   75        0.0001187011
   76        0.0027230198
   77       -0.0051511508
   78       -0.0045504739
   79        0.0033358987
   80        0.0008862664
   81       -0.0007333313
   82       -0.0009204503
   83        0.0035736834
   84       -0.0027672431
   85       -0.0006054763
   86        0.0002920593
   87        0.0003134170
   88       -0.0003747955
   89        0.0003062729
   90        0.0000690354
   91       -0.0017951129
   92       -0.0029214200
   93       -0.0000346848
   94        0.0003357520