[Molden Format]
made by pyscf v[2.12.1]
[Atoms] (AU)
C   1   6    -3.67285279844341     1.45125297188223    -1.08007296649516
C   2   6    -0.85428848913213     0.99836120886897    -0.76511231331390
C   3   6    -0.29562875492696    -1.22688578911262     0.95805335063200
O   4   8    -1.96427582017915    -2.49417392276844     1.96567421751133
C   5   6     2.38402178696755    -1.93077097599061     1.47003684956041
C   6   6     4.40909009657396    -0.74835044258901     0.52368090363947
H   7   1    -4.00731542523018     3.06437988359470    -2.33016459241744
H   8   1    -4.60501690116886    -0.20514866808278    -1.89841886473806
H   9   1    -4.57011365964815     1.84824663613086     0.74192537376549
H   10   1     0.01296352121452     2.69590218656576     0.04074249524562
H   11   1    -0.02224207648613     0.62445999786252    -2.62282647732883
H   12   1     2.60714175049494    -3.54321758629825     2.72105444128372
H   13   1     4.28357448738035     0.86679847607675    -0.73073819510806
H   14   1     6.29494228258366    -1.40085397614008     1.00620357228591
[GTO]
1 0
 s    3 1.00
             71.616837    0.15432897000916
             13.045096    0.53532814003178
             3.5305122     0.4446345400264
 s    3 1.00
             2.9412494  -0.099967230075964
             0.6834831    0.39951283030359
             0.2222899    0.70011547053201
 p    3 1.00
             2.9412494    0.15591627210511
             0.6834831    0.60768372820466
             0.2222899    0.39195739529202

2 0
 s    3 1.00
             71.616837    0.15432897000916
             13.045096    0.53532814003178
             3.5305122     0.4446345400264
 s    3 1.00
             2.9412494  -0.099967230075964
             0.6834831    0.39951283030359
             0.2222899    0.70011547053201
 p    3 1.00
             2.9412494    0.15591627210511
             0.6834831    0.60768372820466
             0.2222899    0.39195739529202

3 0
 s    3 1.00
             71.616837    0.15432897000916
             13.045096    0.53532814003178
             3.5305122     0.4446345400264
 s    3 1.00
             2.9412494  -0.099967230075964
             0.6834831    0.39951283030359
             0.2222899    0.70011547053201
 p    3 1.00
             2.9412494    0.15591627210511
             0.6834831    0.60768372820466
             0.2222899    0.39195739529202

4 0
 s    3 1.00
             130.70932    0.15432896872316
             23.808861    0.53532813557095
             6.4436083    0.44463453632131
 s    3 1.00
             5.0331513  -0.099967228656673
             1.1695961    0.39951282463148
              0.380389    0.70011546059208
 p    3 1.00
             5.0331513    0.15591626847816
             1.1695961    0.60768371406861
              0.380389    0.39195738617424

5 0
 s    3 1.00
             71.616837    0.15432897000916
             13.045096    0.53532814003178
             3.5305122     0.4446345400264
 s    3 1.00
             2.9412494  -0.099967230075964
             0.6834831    0.39951283030359
             0.2222899    0.70011547053201
 p    3 1.00
             2.9412494    0.15591627210511
             0.6834831    0.60768372820466
             0.2222899    0.39195739529202

6 0
 s    3 1.00
             71.616837    0.15432897000916
             13.045096    0.53532814003178
             3.5305122     0.4446345400264
 s    3 1.00
             2.9412494  -0.099967230075964
             0.6834831    0.39951283030359
             0.2222899    0.70011547053201
 p    3 1.00
             2.9412494    0.15591627210511
             0.6834831    0.60768372820466
             0.2222899    0.39195739529202

7 0
 s    3 1.00
            3.42525091    0.15432897070298
            0.62391373    0.53532814243847
             0.1688554    0.44463454202535

8 0
 s    3 1.00
            3.42525091    0.15432897070298
            0.62391373    0.53532814243847
             0.1688554    0.44463454202535

9 0
 s    3 1.00
            3.42525091    0.15432897070298
            0.62391373    0.53532814243847
             0.1688554    0.44463454202535

10 0
 s    3 1.00
            3.42525091    0.15432897070298
            0.62391373    0.53532814243847
             0.1688554    0.44463454202535

11 0
 s    3 1.00
            3.42525091    0.15432897070298
            0.62391373    0.53532814243847
             0.1688554    0.44463454202535

12 0
 s    3 1.00
            3.42525091    0.15432897070298
            0.62391373    0.53532814243847
             0.1688554    0.44463454202535

13 0
 s    3 1.00
            3.42525091    0.15432897070298
            0.62391373    0.53532814243847
             0.1688554    0.44463454202535

14 0
 s    3 1.00
            3.42525091    0.15432897070298
            0.62391373    0.53532814243847
             0.1688554    0.44463454202535

[5d]
[7f]
[9g]

[MO]
 Sym= A
 Ene=    -18.50207412
 Spin= Alpha
 Occup=    2.00000
   1    3.153900241134e-06
   2    -4.3715081911162e-05
   3    -0.00014849791371037
   4    4.3421138472308e-05
   5    -3.180885042694e-05
   6    -3.0569394909429e-05
   7    0.00030080731511027
   8    -0.00056829899604996
   9    -0.00024220861687155
  10    0.00019587525621852
  11    0.00072789186002462
  12    -0.0089003170652898
  13     0.005682142291427
  14    0.0044019696912121
  15    -0.0034984967193508
  16       0.9933908845851
  17     0.030014488875533
  18    0.0045230094612405
  19     0.003440623924432
  20    -0.0027355927589893
  21    -3.5964598756214e-05
  22    0.00051865047810227
  23    -0.00045163800120858
  24    -0.00038767232261042
  25    0.00030745932174982
  26    7.0868159166668e-06
  27    5.2572506500262e-05
  28    3.7999011248626e-05
  29    -6.5378714851658e-05
  30    5.0343298936804e-05
  31    -2.3490342552833e-05
  32    -0.00010505322857728
  33    -0.00010504750013156
  34    4.1703155540366e-05
  35    4.1702158281441e-05
  36    -0.00031018785101962
  37    -1.6115721317887e-05
  38    -2.5565618822791e-05
 Sym= A
 Ene=    -9.777751694
 Spin= Alpha
 Occup=    2.00000
   1    -0.00037412877866884
   2    0.00038930500897318
   3    5.3492962526022e-05
   4    0.00018893996999769
   5    -0.00014764492585461
   6    -0.0096549460198428
   7    -0.0080702073662045
   8    -0.00087221644507586
   9    0.0047245552350235
  10    -0.0036626879575465
  11      0.99041099939787
  12     0.042817944165352
  13    -0.00013910444516847
  14    -0.00077540553898612
  15    0.0006048015874877
  16    0.00063063353504081
  17    -0.0087147182748607
  18    -0.0026436137885781
  19    -0.0019915579781369
  20    0.0015837738536562
  21    -0.0077968613756386
  22    -0.008753618741152
  23    0.0061090599366851
  24    -0.0014358169055789
  25    0.0010358741390784
  26    1.1017740414227e-05
  27    0.00026748589035756
  28    -0.00021031286491469
  29    0.00015701663169818
  30    -0.00011932988986598
  31    -0.00021483407748328
  32    -0.00021190147125187
  33    -0.0002118917538095
  34    -4.8721521472973e-05
  35    -4.8718573633726e-05
  36    0.00012772925105493
  37    -0.0001599188705001
  38    -3.4287380026941e-05
 Sym= A
 Ene=    -9.724408275
 Spin= Alpha
 Occup=    2.00000
   1    -0.037188242921658
   2    -0.010014584596332
   3    -0.0061915624093624
   4    0.0010131473571559
   5    -0.00070609729678603
   6      0.98898268214544
   7     0.048492928665434
   8    -5.8533903386123e-05
   9    0.00011329050635348
  10    -8.7234496372269e-05
  11     0.011241829754895
  12    -0.0078083398364624
  13    0.0014013266988368
  14    -0.0049521062433962
  15    0.0038326577063147
  16    -3.0894344654304e-05
  17    0.00024245820209613
  18    -0.00015374143565679
  19    0.00030819640483749
  20    -0.00023764591231464
  21    -0.00054618422290524
  22    0.0001925681300887
  23    7.3396123883056e-05
  24    0.00013728688355656
  25    -0.00010773792616373
  26    -0.00095862348474141
  27    -9.8390633035977e-05
  28    0.00018078926852163
  29    -3.865326776767e-06
  30    6.1098058032894e-07
  31    0.00057392092783597
  32    0.00052108876039765
  33    0.00052108435374493
  34    -0.0099532242372782
  35    -0.0099531016678952
  36    -7.3422424685074e-05
  37    -3.2811069845924e-05
  38    -4.868524481196e-05
 Sym= A
 Ene=    -9.712102224
 Spin= Alpha
 Occup=    2.00000
   1    -0.0023470125247652
   2    -0.00015482504358978
   3    -1.870617733145e-05
   4    5.3050621804507e-05
   5    -4.1009311290434e-05
   6    -0.0004412894400966
   7    0.00021070606347729
   8    7.8070082430564e-05
   9    -5.5203688411108e-05
  10    4.1902618995661e-05
  11    0.0067811080766196
  12    -0.0060750858626769
  13    -0.0043364164077514
  14    0.0010949837435169
  15    -0.0007942487597325
  16    -3.3825601290122e-05
  17    0.00034244735519048
  18    0.00030655788587227
  19    -2.4612248641339e-05
  20    1.5089613257873e-05
  21      0.70934053142007
  22     0.040830362105033
  23    0.0048917752717025
  24    0.0028640020135115
  25    -0.0022920165691095
  26      -0.6899313663605
  27    -0.040089036568804
  28    0.0051081800682969
  29     0.003051956535526
  30    -0.0024409415613709
  31    1.1486703280659e-05
  32    2.3506100064768e-05
  33    2.3505925300188e-05
  34    -0.00010269149863859
  35    -0.0001026813090252
  36    -0.0072210181643634
  37    0.0068780255930548
  38    0.0069412224703489
 Sym= A
 Ene=    -9.711484827
 Spin= Alpha
 Occup=    2.00000
   1    -0.0058532173375717
   2    -0.0003910180072886
   3    -7.0154428954774e-05
   4    5.016491806702e-05
   5    -3.8085091361804e-05
   6    0.00080060670597278
   7    0.00025798990383537
   8    -8.974358056232e-05
   9    5.3202732738371e-05
  10    -4.0189051438471e-05
  11    0.0065897959769256
  12    -0.005417425952537
  13    -0.0040191616531462
  14    0.0010413217352416
  15    -0.00075670963557448
  16    -1.2464355291557e-05
  17    0.00018909201981586
  18    0.00019232651880182
  19    -2.3411723059619e-05
  20    1.5664612888385e-05
  21      0.69082513450832
  22     0.024275588028616
  23    -0.0029728404399659
  24    -0.0018119979572507
  25    0.0014485811643649
  26      0.71037989811524
  27     0.025310687605857
  28    0.0028348169382248
  29    0.0015376358155918
  30    -0.0012334647230382
  31    5.1000518502988e-05
  32    5.9269017545542e-05
  33    5.9268437965089e-05
  34    -9.0809993969985e-05
  35    -9.0807418943049e-05
  36    -0.0067089605853325
  37    -0.0068013297723062
  38    -0.0068179913194935
 Sym= A
 Ene=    -9.709454509
 Spin= Alpha
 Occup=    2.00000
   1      0.98913633251544
   2     0.047943331344209
   3    -0.00046953254747646
   4    0.0001209794900589
   5    -8.7947983998414e-05
   6     0.038818181436321
   7    -0.0062350183868263
   8    0.0061823012677329
   9    -0.00098634349403812
  10    0.00068538172627995
  11    0.00091822250194429
  12    -0.00014127147263915
  13    0.00011630165433662
  14    -9.6552486703539e-05
  15    7.3550986919797e-05
  16    4.2809072935375e-06
  17    3.9270142616814e-05
  18    6.4001023806627e-05
  19    -4.0276383393314e-05
  20    3.0476514007711e-05
  21    0.0057772120042224
  22    0.00014680317588727
  23    6.2074118385015e-05
  24    -7.3527014650074e-05
  25    5.6360106061527e-05
  26    0.0025388056465309
  27    6.9778515416097e-05
  28    7.1205673692686e-05
  29    1.1292173052061e-05
  30    -9.7244346568363e-06
  31    -0.0098597970154277
  32    -0.0098273379215304
  33    -0.0098271974354108
  34    -0.00021811382004361
  35    -0.00021811212028251
  36    -7.8109022235497e-05
  37    -9.4459623555818e-05
  38    -4.1546297900369e-05
 Sym= A
 Ene=   -0.8939911274
 Spin= Alpha
 Occup=    2.00000
   1    -0.008314679277049
   2     0.019554883962794
   3    0.0063964745834663
   4    -0.0054686971869863
   5    0.0041696141042883
   6    -0.023998614757424
   7     0.060101591994967
   8      0.00178929780368
   9    -0.023485982764279
  10     0.018242297604464
  11     -0.13537786159505
  12      0.31001094856598
  13     -0.11642483673515
  14    -0.092341579498026
  15     0.073351517612372
  16      -0.2064571032758
  17      0.70608028643779
  18      0.15573567699796
  19       0.1181316607661
  20    -0.093931300520591
  21     -0.02568798568711
  22      0.06041562666312
  23    -0.032519162390903
  24    0.0041876903909535
  25    -0.0028267094819895
  26    -0.0050734973023441
  27     0.013029377838499
  28    -0.0066423338026473
  29    -0.0028414975153373
  30    0.0022975272004252
  31    0.0020189101108857
  32    0.0049781128469163
  33    0.0049782128531776
  34    0.0069385899195511
  35    0.0069405435566857
  36     0.011604484160238
  37    0.0022872403108223
  38    0.0013264850074637
 Sym= A
 Ene=   -0.6774704009
 Spin= Alpha
 Occup=    2.00000
   1    -0.082553169015421
   2      0.22008366955396
   3     0.044533345109519
   4    -0.0048780631175276
   5    0.0032045056819027
   6     -0.12738391462953
   7      0.34333633836146
   8    0.00050093695769785
   9     -0.01212995509083
  10    0.0094175088494103
  11    -0.062579321169648
  12       0.1742716374967
  13      0.10865195626156
  14     0.084037315668688
  15    -0.066791156368908
  16     0.061139302285621
  17     -0.22831533422351
  18     -0.02183019050702
  19     -0.01291505575614
  20     0.010333428857889
  21     -0.13004598901163
  22       0.3360321034467
  23     0.032605038531708
  24     0.047808176868125
  25    -0.037611627632127
  26     -0.11622168327617
  27      0.30122892506838
  28    -0.067003883846627
  29     -0.02879967313065
  30      0.02328345343736
  31     0.048355861713906
  32     0.046032859419468
  33      0.04603486611494
  34     0.085348565271534
  35     0.085373955339205
  36      0.06965586508251
  37     0.075934025479643
  38     0.065932120885694
 Sym= A
 Ene=   -0.6527173883
 Spin= Alpha
 Occup=    2.00000
   1     -0.12728563369254
   2      0.34490857876281
   3     0.047991953552744
   4    -0.0063364485365533
   5    0.0042936230038025
   6     -0.12388958635197
   7      0.33716398987716
   8    -0.058849387534565
   9     0.015369629431712
  10    -0.011177574175907
  11    0.0017405713674142
  12    -0.0078240857227448
  13    -0.084518883958206
  14     0.072664442549628
  15    -0.055390482141684
  16    0.0052944352470058
  17    -0.019458265253823
  18    -0.024526464522424
  19     0.015396883324999
  20     -0.01164996576746
  21      0.12305204293584
  22     -0.32135408478672
  23    -0.060023702758352
  24    -0.024149957639251
  25      0.01957288627731
  26      0.12066473726975
  27     -0.31860634791507
  28     0.052864575060167
  29     0.037221319395248
  30    -0.029649224038753
  31     0.081584674777468
  32     0.079627789458058
  33     0.079630425475509
  34     0.079318156958346
  35     0.079326548182911
  36    -0.081871220143594
  37    -0.073038959683311
  38    -0.078615446186821
 Sym= A
 Ene=    -0.549746337
 Spin= Alpha
 Occup=    2.00000
   1     -0.14655847335687
   2      0.42997857473851
   3     -0.08021108959808
   4     0.019746090667402
   5    -0.014293286940115
   6     0.087989709536059
   7     -0.26261404412878
   8     -0.15033808634477
   9     0.063319194933859
  10    -0.047242901442803
  11     0.095079343064939
  12     -0.28345483192822
  13    -0.096308815848298
  14    -0.096461187829059
  15     0.076293964508083
  16    -0.047208830396016
  17      0.18937687770791
  18    -0.018157986441615
  19    -0.0067270107231136
  20    0.0054721729053459
  21    0.0076759747354128
  22    -0.026178478492243
  23      0.14860211525621
  24    -0.0096046173233011
  25    0.0055078952338902
  26    -0.094367968075574
  27       0.2700269875396
  28     0.044586832992402
  29    -0.015920661350714
  30     0.011796923391833
  31      0.14601236690888
  32      0.13867531359104
  33      0.13867780214796
  34    -0.092077509942937
  35    -0.092100055882713
  36    0.0064093258340449
  37     0.072839377530892
  38       0.1115214034826
 Sym= A
 Ene=   -0.5069274065
 Spin= Alpha
 Occup=    2.00000
   1     0.070868674459642
   2     -0.21532256951188
   3     0.083658247836998
   4    -0.018104247758145
   5     0.012969659282073
   6    -0.069755308543773
   7      0.21108754746316
   8     0.057025217095462
   9     0.014257829801546
  10    -0.011857944232179
  11     0.044709139796415
  12     -0.13876302365932
  13     -0.18701650642536
  14     0.086806923053217
  15    -0.065041346992033
  16    -0.038599247241231
  17      0.16094388271111
  18    -0.055155380674786
  19     0.030373608772128
  20    -0.022896250460945
  21      0.11866571553757
  22     -0.35576941926909
  23      0.15517003238808
  24      0.08816255705612
  25    -0.070618048744297
  26       -0.121407694748
  27      0.36300988424186
  28      0.11526396288346
  29     0.079264673445241
  30    -0.063166730036836
  31    -0.085884699745567
  32    -0.080282967843937
  33    -0.080286308193044
  34      0.08873895965116
  35     0.088764187630936
  36     -0.17181819498614
  37      0.18857640533562
  38      0.16463628749491
 Sym= A
 Ene=   -0.4203138531
 Spin= Alpha
 Occup=    2.00000
   1    -0.030598572773116
   2      0.10152025068854
   3     -0.15604397226681
   4    -0.054419303572943
   5      0.04440878804451
   6     0.069255023473793
   7     -0.22635673500309
   8    0.0034102186259319
   9     -0.20011102754755
  10      0.15561684917662
  11     -0.10632465798367
  12      0.35358172719494
  13     0.083128212066493
  14     0.080534071884969
  15    -0.063715427425001
  16     0.048763303314063
  17     -0.21118037564986
  18     0.034749693748815
  19     0.057796240909534
  20    -0.045401662702622
  21     0.049206979227692
  22     -0.15300879884617
  23     -0.18983399073556
  24      0.19435197202768
  25     -0.14863258810624
  26    -0.024187708032295
  27     0.084026340481216
  28    -0.024421637529813
  29      0.18660006269619
  30     -0.14478772720682
  31    0.0064579973911379
  32      0.09697055860166
  33     0.096990836642555
  34     -0.14881927068262
  35     -0.14885502860822
  36     -0.23849874556881
  37       0.1804475443583
  38      -0.0409601162953
 Sym= A
 Ene=   -0.3822776507
 Spin= Alpha
 Occup=    2.00000
   1    -0.0064171344495748
   2     0.019597422343493
   3    -0.012435498441474
   4      0.19737273778321
   5     -0.15399210591117
   6    0.0066465677831336
   7    -0.019960768854282
   8      0.13205470853087
   9      0.24215162771582
  10     -0.19104649015967
  11     0.035037059642843
  12     -0.12498804238679
  13      0.22353197494775
  14     -0.18890718434742
  15      0.14348014783859
  16    -0.031834581234564
  17      0.14363341274555
  18     0.073341972613071
  19      -0.1205733669429
  20     0.092554103059544
  21    0.0026542740131289
  22    -0.0097132670069964
  23     -0.19145296126873
  24      0.07165631195264
  25    -0.053345367532013
  26    -0.00035894862129643
  27     0.010014137303935
  28    -0.088265694859163
  29      0.21321739545227
  30     -0.16471485799301
  31      0.18788171528215
  32     -0.05807079374291
  33    -0.058680469795085
  34      0.13445759659921
  35      0.13543617680353
  36    -0.076167888769003
  37      0.21899439030538
  38     -0.13435951308126
 Sym= A
 Ene=   -0.3780912715
 Spin= Alpha
 Occup=    2.00000
   1    -6.0804684052247e-06
   2    1.7780245166112e-05
   3    0.0032841491079052
   4      0.19280634007426
   5      0.24721937183956
   6    -8.5305388799892e-07
   7    4.6756425511838e-06
   8    0.0048950805639247
   9      0.27665139111604
  10      0.35485116016783
  11    6.1125281747042e-05
  12    -0.00021714604196979
  13    0.0026777189334699
  14       0.1350414479318
  15       0.1743166395887
  16    -5.2421804987208e-05
  17    0.00023572765238959
  18     0.001375984454516
  19     0.072923644201131
  20      0.09420560712835
  21    3.949881056521e-06
  22    -1.3223342627122e-05
  23    0.00039648213129802
  24     0.042951193415498
  25     0.055025849090113
  26    -2.3397951263534e-06
  27    2.4317068589328e-05
  28    0.00020808050902151
  29     0.019880883850902
  30     0.024810694643155
  31    0.00031352019611311
  32     -0.18545613727806
  33      0.18522091843245
  34      0.27968795529018
  35     -0.27921491793416
  36    -0.00011164647766331
  37    0.00037441135813344
  38    -0.00021272089575072
 Sym= A
 Ene=   -0.3549345447
 Spin= Alpha
 Occup=    2.00000
   1    -0.0014000564648526
   2    0.0042924251372985
   3     0.015710082372531
   4     0.027806681733321
   5    -0.021864388591401
   6    -0.002333864818366
   7     0.011751077695302
   8    -0.014648665451357
   9    0.0014440953851308
  10    -0.00095713695131593
  11    -0.056814495072325
  12      0.19403295791324
  13     0.068029115595512
  14    -0.091770919326257
  15     0.070456691270037
  16     0.055899885022191
  17     -0.25901194445787
  18       0.1601288978382
  19     0.018844057959799
  20    -0.016776031239854
  21     0.040455643595462
  22     -0.11285613485238
  23     -0.27557021371065
  24     -0.24227172095953
  25      0.19205495524642
  26    0.0007100568329349
  27     0.026619569458125
  28       0.4876114214681
  29     0.081334151827819
  30    -0.069703662877142
  31     0.025231785700004
  32    -0.017771072715984
  33    -0.017801921659978
  34    -0.0035892871354873
  35    -0.0035675781635469
  36      0.15612326114616
  37     0.072165294017875
  38      0.33544243395177
 Sym= A
 Ene=   -0.3092444879
 Spin= Alpha
 Occup=    2.00000
   1    0.0030444149665419
   2     -0.01129583524277
   3    -0.080263514232728
   4      0.29655231799541
   5     -0.22955967378777
   6     0.018827161243764
   7    -0.068684476012914
   8       0.1331281606391
   9    -0.020496239379701
  10     0.014193047869512
  11    -0.055927130523946
  12      0.20706460508578
  13     0.033502689137373
  14      0.03633655799839
  15    -0.028703765749987
  16     0.014471847478809
  17    -0.068261080511624
  18     0.063819952458172
  19     0.047875738937728
  20     -0.03807936084645
  21     0.019470157315063
  22    -0.078564650228578
  23     0.048991373192591
  24      0.17888060222979
  25     -0.13976923584991
  26    -0.0096461299418367
  27     0.025824084154622
  28     0.090905040138317
  29      -0.2689123358566
  30      0.20791584619693
  31      0.33608854900029
  32     -0.10247413279354
  33     -0.10246861172619
  34     -0.00642511186279
  35    -0.0064395581589658
  36     -0.24760209963005
  37      -0.3115822048377
  38      0.21992676134096
 Sym= A
 Ene=   -0.2910597834
 Spin= Alpha
 Occup=    2.00000
   1    -0.012399590109563
   2     0.048662854832964
   3      0.43540969821881
   4      0.12784470064574
   5     -0.10561228001865
   6    -0.0050948493257251
   7     0.022465894292886
   8     -0.43196315017202
   9    0.0029383526467648
  10    0.0035656583055639
  11    -0.027287633867645
  12     0.097319443907895
  13     -0.14925128909802
  14    -0.071848734938631
  15     0.058133421922176
  16     0.056979753344245
  17     -0.27939907878884
  18      0.16047965996809
  19      0.15223060852605
  20     -0.12030367878711
  21    -0.0084574761480452
  22     0.030383637052842
  23     0.027084360493068
  24     0.021545644304337
  25    -0.016954891902119
  26    -0.012749980465817
  27     0.043371438576389
  28     -0.11745376567274
  29     0.068360268629362
  30    -0.051513685667567
  31      0.11114480183366
  32     -0.21678178491257
  33     -0.21728517682092
  34     -0.15638316261721
  35     -0.15658432003446
  36    -0.016223652997799
  37     0.080284182650654
  38     -0.12086607033624
 Sym= A
 Ene=   -0.2868739019
 Spin= Alpha
 Occup=    2.00000
   1    -7.8050272888689e-06
   2    3.291455091766e-05
   3    0.0050126577239657
   4      0.27792193024424
   5      0.35717172631284
   6    -4.1289479008585e-07
   7    5.8473226482758e-06
   8    -0.0020034751981405
   9     -0.10073355209378
  10     -0.12951654540974
  11    -2.0642064114427e-05
  12     7.30653705134e-05
  13    -0.003868296743224
  14     -0.21994042799712
  15     -0.28270774927454
  16    4.544888935879e-05
  17    -0.00022250106509477
  18    -0.0027449116091845
  19     -0.16838660949151
  20     -0.21679967796359
  21    -5.0966426437784e-06
  22    1.8601946465466e-05
  23    -0.0019807396706434
  24     -0.11828389611845
  25     -0.15209166358702
  26    -8.1617085576114e-06
  27    2.756488824738e-05
  28    -0.0011884868066457
  29    -0.064927809938483
  30       -0.083592620379
  31    8.6338861646935e-05
  32      -0.3336244848352
  33       0.3333239856074
  34     -0.13504992390016
  35      0.13483051361264
  36    9.1859004303885e-06
  37    6.5723644257643e-05
  38    -9.0480829675975e-05
 Sym= A
 Ene=   -0.2670140338
 Spin= Alpha
 Occup=    2.00000
   1      0.01684887151448
   2    -0.062229733375781
   3     -0.20402699743635
   4      0.23352548073857
   5     -0.17892888756179
   6    0.0097458350575982
   7    -0.039679635803247
   8      0.21435021779582
   9     -0.16839930819165
  10      0.12813717013884
  11    -0.0084148625436732
  12     0.029967258252118
  13     -0.26066907256383
  14      0.20774173791901
  15     -0.15806810743378
  16    0.0063208446932347
  17    -0.030722450187794
  18     -0.10976466459164
  19      0.13314595489504
  20     -0.10206867023407
  21    0.0048833296777403
  22    -0.0096843971099105
  23      0.15616781860646
  24     -0.22042003859842
  25      0.16938864728069
  26     0.011546316199563
  27    -0.043362747545964
  28    -0.063923140382661
  29      0.14840472117529
  30     -0.11454279728062
  31      0.30197467583676
  32     -0.05340267662735
  33    -0.053421213611775
  34    -0.0093760228320165
  35    -0.0093736474661903
  36      0.30512136201414
  37      0.20746744581916
  38     -0.17014022892518
 Sym= A
 Ene=   -0.2473093208
 Spin= Alpha
 Occup=    2.00000
   1    3.4230159628505e-07
   2    3.8824773798883e-07
   3    0.0020429586951883
   4      0.12048442512455
   5       0.1549615057572
   6    3.9566879232817e-06
   7    -1.0381551658115e-05
   8    -0.0033108907429248
   9     -0.19478110186994
  10     -0.25050108698142
  11    -5.2223507856813e-06
  12    1.7015294473485e-05
  13    0.0040953144434087
  14      0.24348899032009
  15      0.31318145974228
  16    1.7602251075911e-05
  17    -8.815719149224e-05
  18    0.0047718477665082
  19      0.27534547162667
  20      0.35395626384788
  21    2.2751914717481e-06
  22    -9.7255095397271e-06
  23    0.0028745786405469
  24      0.16751324722122
  25      0.21537878810491
  26    -1.4184018421733e-06
  27    4.0235634226375e-06
  28     0.001676806458404
  29       0.0996453358502
  30      0.12816588580429
  31    -1.7983664925997e-05
  32     -0.18497422455553
  33      0.18498931590528
  34     -0.28671880253814
  35      0.28673308985329
  36    -1.7348603297277e-05
  37    -1.0426409000649e-05
  38    -4.3793267716562e-06
 Sym= A
 Ene=   -0.2435838998
 Spin= Alpha
 Occup=    2.00000
   1     -0.01135536275818
   2     0.045469891882079
   3      0.19285555641281
   4     0.079831329502811
   5     -0.06457829476364
   6    -0.011390387520534
   7     0.042942209311336
   8     -0.17365330296302
   9     -0.15517796082887
  10      0.12289548416687
  11     0.021294788584916
  12    -0.066146900034659
  13      0.25825412511468
  14       0.2305437266432
  15     -0.18264979819369
  16    -0.094715923364764
  17      0.47326646040885
  18     -0.43464365218782
  19     -0.31799425427528
  20      0.25311680033836
  21    -0.011542681151279
  22     0.051186553559693
  23     -0.15305711713294
  24    -0.010653139599008
  25      0.01035470278827
  26     0.012626037873977
  27    -0.040267496929772
  28      0.11817154986926
  29     0.043536095143883
  30    -0.035391256867991
  31      0.10106727314134
  32     -0.10531758001905
  33     -0.10523910861006
  34     -0.14970819916788
  35     -0.14960395524554
  36     0.044621219877804
  37    -0.00071802406940064
  38     0.079058450064871
 Sym= A
 Ene=   -0.1779073619
 Spin= Alpha
 Occup=    2.00000
   1    4.8987132505762e-07
   2    -2.3354357688284e-06
   3    0.00018731856251156
   4      0.01122584678133
   5     0.014438889383483
   6    -4.4726166851574e-07
   7    9.4553651234482e-07
   8    1.4479567492116e-06
   9    -0.00013330065009119
  10    -0.00019512872367385
  11    -3.5438184546341e-07
  12    1.9284184985668e-06
  13    -0.0019058289130718
  14     -0.11255236016082
  15     -0.14472078847776
  16    -3.529747302047e-08
  17    6.7661382424193e-07
  18    -0.0046608796920704
  19     -0.27332581121717
  20     -0.35147993303813
  21    -1.65736094087e-06
  22    7.1491888909895e-06
  23    0.0054191384483533
  24      0.31901990959828
  25      0.41020242565491
  26    2.2662131930772e-06
  27    -8.2895106051911e-06
  28     0.006267310296296
  29      0.36826852478619
  30      0.47354703018161
  31    -4.8893194580021e-06
  32    -0.0063049586133184
  33    0.0063121120907294
  34     0.031224477056878
  35    -0.031216327161666
  36    -8.6170846859278e-06
  37    -7.7476872257318e-06
  38    8.9577479484114e-06
 Sym= A
 Ene=  -0.07980374653
 Spin= Alpha
 Occup=    2.00000
   1    -0.0034991688435073
   2     0.014053734466684
   3    -0.034113061192096
   4     0.012449615348435
   5    -0.0092327661261564
   6    -0.037696056813647
   7      0.17303244166983
   8      0.03373994287963
   9     -0.23023947673967
  10      0.17861136098358
  11    -0.0005634381780056
  12    0.0036125179659846
  13    -0.0078151909672636
  14    0.0057774453493648
  15    -0.0044332882179597
  16    -4.4974075496474e-05
  17    0.00030772364645433
  18        0.644763410622
  19     -0.51516677007132
  20      0.39211412099339
  21     0.047145794895667
  22     -0.21925039015902
  23      0.24481336573984
  24    -0.064567844658636
  25     0.046976079580262
  26    -0.015039447545793
  27     0.060424158952805