[Molden Format]
made by pyscf v[2.12.1]
[Atoms] (AU)
C   1   6    -3.67285279844341     1.45125297188223    -1.08007296649516
C   2   6    -0.85428848913213     0.99836120886897    -0.76511231331390
C   3   6    -0.29562875492696    -1.22688578911262     0.95805335063200
O   4   8    -1.96427582017915    -2.49417392276844     1.96567421751133
C   5   6     2.38402178696755    -1.93077097599061     1.47003684956041
C   6   6     4.40909009657396    -0.74835044258901     0.52368090363947
H   7   1    -4.00731542523018     3.06437988359470    -2.33016459241744
H   8   1    -4.60501690116886    -0.20514866808278    -1.89841886473806
H   9   1    -4.57011365964815     1.84824663613086     0.74192537376549
H   10   1     0.01296352121452     2.69590218656576     0.04074249524562
H   11   1    -0.02224207648613     0.62445999786252    -2.62282647732883
H   12   1     2.60714175049494    -3.54321758629825     2.72105444128372
H   13   1     4.28357448738035     0.86679847607675    -0.73073819510806
H   14   1     6.29494228258366    -1.40085397614008     1.00620357228591
[GTO]
1 0
 s    3 1.00
             71.616837    0.15432897000916
             13.045096    0.53532814003178
             3.5305122     0.4446345400264
 s    3 1.00
             2.9412494  -0.099967230075964
             0.6834831    0.39951283030359
             0.2222899    0.70011547053201
 p    3 1.00
             2.9412494    0.15591627210511
             0.6834831    0.60768372820466
             0.2222899    0.39195739529202

2 0
 s    3 1.00
             71.616837    0.15432897000916
             13.045096    0.53532814003178
             3.5305122     0.4446345400264
 s    3 1.00
             2.9412494  -0.099967230075964
             0.6834831    0.39951283030359
             0.2222899    0.70011547053201
 p    3 1.00
             2.9412494    0.15591627210511
             0.6834831    0.60768372820466
             0.2222899    0.39195739529202

3 0
 s    3 1.00
             71.616837    0.15432897000916
             13.045096    0.53532814003178
             3.5305122     0.4446345400264
 s    3 1.00
             2.9412494  -0.099967230075964
             0.6834831    0.39951283030359
             0.2222899    0.70011547053201
 p    3 1.00
             2.9412494    0.15591627210511
             0.6834831    0.60768372820466
             0.2222899    0.39195739529202

4 0
 s    3 1.00
             130.70932    0.15432896872316
             23.808861    0.53532813557095
             6.4436083    0.44463453632131
 s    3 1.00
             5.0331513  -0.099967228656673
             1.1695961    0.39951282463148
              0.380389    0.70011546059208
 p    3 1.00
             5.0331513    0.15591626847816
             1.1695961    0.60768371406861
              0.380389    0.39195738617424

5 0
 s    3 1.00
             71.616837    0.15432897000916
             13.045096    0.53532814003178
             3.5305122     0.4446345400264
 s    3 1.00
             2.9412494  -0.099967230075964
             0.6834831    0.39951283030359
             0.2222899    0.70011547053201
 p    3 1.00
             2.9412494    0.15591627210511
             0.6834831    0.60768372820466
             0.2222899    0.39195739529202

6 0
 s    3 1.00
             71.616837    0.15432897000916
             13.045096    0.53532814003178
             3.5305122     0.4446345400264
 s    3 1.00
             2.9412494  -0.099967230075964
             0.6834831    0.39951283030359
             0.2222899    0.70011547053201
 p    3 1.00
             2.9412494    0.15591627210511
             0.6834831    0.60768372820466
             0.2222899    0.39195739529202

7 0
 s    3 1.00
            3.42525091    0.15432897070298
            0.62391373    0.53532814243847
             0.1688554    0.44463454202535

8 0
 s    3 1.00
            3.42525091    0.15432897070298
            0.62391373    0.53532814243847
             0.1688554    0.44463454202535

9 0
 s    3 1.00
            3.42525091    0.15432897070298
            0.62391373    0.53532814243847
             0.1688554    0.44463454202535

10 0
 s    3 1.00
            3.42525091    0.15432897070298
            0.62391373    0.53532814243847
             0.1688554    0.44463454202535

11 0
 s    3 1.00
            3.42525091    0.15432897070298
            0.62391373    0.53532814243847
             0.1688554    0.44463454202535

12 0
 s    3 1.00
            3.42525091    0.15432897070298
            0.62391373    0.53532814243847
             0.1688554    0.44463454202535

13 0
 s    3 1.00
            3.42525091    0.15432897070298
            0.62391373    0.53532814243847
             0.1688554    0.44463454202535

14 0
 s    3 1.00
            3.42525091    0.15432897070298
            0.62391373    0.53532814243847
             0.1688554    0.44463454202535

[5d]
[7f]
[9g]

[MO]
 Sym= A
 Ene=    -18.62072776
 Spin= Alpha
 Occup=    1.00000
   1    3.190280828763e-06
   2    -4.4777513357004e-05
   3    -0.00014978948418531
   4    4.3107985715347e-05
   5    -3.1548352304927e-05
   6    -3.0917315227574e-05
   7    0.00030382746717108
   8    -0.00057504053982411
   9    -0.00024499281081109
  10    0.00019812880761154
  11    0.00073412179649827
  12    -0.0089816242485663
  13    0.0057381686691911
  14    0.0044429033682607
  15    -0.0035310638313178
  16      0.99333337170923
  17     0.030268244864931
  18    0.0045507127546193
  19    0.0034690991224324
  20    -0.0027581457625601
  21    -3.6307123126049e-05
  22     0.000522243301081
  23    -0.00045694827958209
  24    -0.00039260214129881
  25    0.00031136262609233
  26    7.1043488807652e-06
  27    5.4067866193217e-05
  28    3.7727157430271e-05
  29    -6.627209500959e-05
  30    5.1041735218322e-05
  31    -2.3257587743254e-05
  32    -0.00010546355671032
  33    -0.00010545746056302
  34    4.2285141913863e-05
  35    4.2284095979098e-05
  36    -0.0003122864208662
  37    -1.6285503315203e-05
  38    -2.5849941838523e-05
 Sym= A
 Ene=    -9.755863526
 Spin= Alpha
 Occup=    1.00000
   1    -0.017735614770667
   2    -0.0090462868362384
   3    -0.0061417554958983
   4    0.00099975645127338
   5    -0.00069634211114748
   6      0.98201843424495
   7      0.04891036797053
   8    9.7226416043492e-05
   9    -0.00071303587459377
  10    0.00055332344177125
  11     -0.12092003157226
  12    -0.013581795945641
  13    0.0014858086305721
  14    -0.0048079873470331
  15    0.0037194719077572
  16    -0.0001197063555141
  17    0.0014522436191701
  18    0.00021658393800047
  19    0.00058880054469529
  20    -0.0004607667101707
  21      0.00101576073534
  22    0.0013705095174767
  23    -0.00074681863179845
  24    0.00032072956611491
  25    -0.00023955836524411
  26    -0.00011727431060179
  27    -9.9256810147581e-05
  28    0.00020869581105286
  29    -2.4533198773137e-05
  30    1.6315183767444e-05
  31    0.00040509186537576
  32    0.00035699279387171
  33    0.00035698958945768
  34    -0.0097912931119898
  35    -0.0097911762988503
  36    -9.5382823710803e-05
  37    -2.0153733779917e-05
  38    -5.1936208948725e-05
 Sym= A
 Ene=    -9.751158245
 Spin= Alpha
 Occup=    1.00000
   1    -0.0039296427084189
   2    -0.00086776124389167
   3    -0.00076760778991297
   4    0.00033604728598484
   5    -0.00025119868715183
   6      0.12241181405444
   7    -0.0016475525907029
   8    -0.00082635569315055
   9    0.0047459025049229
  10    -0.0036798812385516
  11      0.98290119218293
  12     0.042050804081246
  13    -0.00040243891441736
  14    -0.0015971858385331
  15    0.0012473595860825
  16    0.00065357353539707
  17    -0.0089385702531194
  18    -0.0027519114634849
  19    -0.0020422114090273
  20    0.0016246020778849
  21    -0.0091515716788821
  22    -0.0087171272343713
  23    0.0060904518315665
  24    -0.0013712514498574
  25    0.00098590906393901
  26    -4.7543895095514e-06
  27    0.0002589791319383
  28    -0.00018719570418701
  29    0.00015621285179298
  30    -0.00011901119614519
  31    -0.00015808123622501
  32    -0.00016011670853978
  33    -0.00016010746901158
  34    -0.0013729352496464
  35    -0.0013729157621992
  36    0.00013552394251228
  37    -0.00016238484913475
  38    -4.0383452229875e-05
 Sym= A
 Ene=    -9.725665314
 Spin= Alpha
 Occup=    1.00000
   1      0.98968492156617
   2     0.048145482569571
   3    -0.00032635406394558
   4    6.7641474897066e-05
   5    -4.8361070739154e-05
   6      0.01972007838789
   7    -0.0071979531377551
   8    0.0061911416018727
   9    -0.00098447092238719
  10    0.0006838068800903
  11    0.0017977830105482
  12    0.00011048871588848
  13    0.00012472501599308
  14    -1.1426545050991e-05
  15    7.2385446225164e-06
  16    5.9044497343855e-06
  17    2.1428879917833e-05
  18    6.289281480924e-05
  19    -4.9500744317192e-05
  20    3.7664460531755e-05
  21    -0.0004026911455006
  22    -0.00012623258846809
  23    7.3664568966741e-05
  24    -7.4019599736272e-05
  25    5.6589458762035e-05
  26    -5.254441324678e-05
  27    1.9803486004737e-05
  28    3.6336998775118e-05
  29    -6.0175919053082e-06
  30    4.1992315813914e-06
  31    -0.0098533757370642
  32    -0.0098415672789391
  33    -0.0098414255475903
  34    -2.3592716388736e-05
  35    -2.3593567000508e-05
  36    -1.5656924680435e-05
  37    -6.9791433313051e-05
  38    -1.642273093506e-05
 Sym= A
 Ene=    -9.693811634
 Spin= Alpha
 Occup=    1.00000
   1    0.00041348511320169
   2    -8.0584854984061e-05
   3    -6.2803545113844e-05
   4    7.4400932229558e-05
   5    -5.703065213435e-05
   6    0.00013020605919711
   7    0.00026176324269101
   8    3.3891690488315e-05
   9    -1.0648264628813e-07
  10    -3.6292526607228e-07
  11     0.010875584317251
  12    -0.0081662433722169
  13    -0.0059799971206726
  14    0.0015459558876902
  15    -0.0011232414280233
  16    -3.2986076171247e-05
  17     0.000373652916733
  18    0.0003578437937208
  19    -3.5042963754553e-05
  20    2.2522583079291e-05
  21      0.99012965312706
  22     0.046185745796102
  23    0.0011167724721348
  24    0.00079032103859862
  25    -0.00062936652091843
  26    -0.0078634626134297
  27    -0.011343494558943
  28    0.0055867714394901
  29    0.0031905286925252
  30    -0.0025551733074794
  31    -1.8454602210011e-05
  32    -3.6358184630982e-06
  33    -3.6354781473103e-06
  34    -0.00013597762145654
  35    -0.0001359688567384
  36    -0.0098316302450063
  37    0.00028200901696134
  38    0.00029843052641773
 Sym= A
 Ene=    -9.657778997
 Spin= Alpha
 Occup=    1.00000
   1    6.197241008842e-05
   2    -3.9752512005268e-05
   3    -3.4207476708332e-05
   4    -9.5630837900961e-07
   5    1.1956971891869e-06
   6    0.00014307502199204
   7    -1.83761344427e-05
   8    -0.00010401814518326
   9    7.5590266783031e-05
  10    -5.7413158767825e-05
  11    8.2371677377504e-05
  12    0.00029091138945893
  13    9.1576081571249e-05
  14    3.4978877993657e-06
  15    -3.9309051629135e-06
  16    1.4614880322384e-05
  17    -0.00010091450062084
  18    -7.3655345546263e-05
  19    2.8050570446321e-07
  20    7.5453964104833e-07
  21    0.0092480342246477
  22    -0.010845469595107
  23    -0.0056381031994063
  24    -0.0033507423381502
  25    0.0026804840122804
  26      0.99013817508807
  27     0.046518777553326
  28    -0.0015756644132716
  29    -0.0010661800473941
  30    0.00084979764042272
  31    2.1610055634688e-06
  32    -5.643397344491e-08
  33    -5.6351833195381e-08
  34    1.3034149535879e-05
  35    1.3028691427788e-05
  36    0.00014200714454836
  37    -0.0097636528657493
  38    -0.009829621999278
 Sym= A
 Ene=   -0.9755754153
 Spin= Alpha
 Occup=    1.00000
   1    -0.0055643303846244
   2     0.012683563067151
   3     0.004198760297352
   4    -0.0045176969397834
   5    0.0034588445167236
   6    -0.016793997317946
   7     0.042445587664589
   8    0.0010426846667985
   9    -0.019076424538228
  10     0.014822826447571
  11     -0.11823110244153
  12      0.24498487826022
  13     -0.10939534778827
  14    -0.082094183327565
  15     0.065289924316696
  16     -0.22016072445891
  17       0.7724035286176
  18      0.15518049358224
  19      0.12004291446114
  20    -0.095410724282401
  21    -0.016310739888131
  22     0.037656072243202
  23    -0.024938834694082
  24    0.0028698229519313
  25    -0.0019021239010585
  26    -0.0020495586337144
  27    0.0056141748736187
  28    -0.003172221015404
  29    -0.0016106947799324
  30    0.0012945182173048
  31    0.0011950239167801
  32    0.0034755561897478
  33     0.003475438438636
  34    0.0035973724694433
  35    0.0035984380444491
  36    0.0069434805923675
  37    0.00091844037163408
  38    0.00041276663001747
 Sym= A
 Ene=   -0.6879855391
 Spin= Alpha
 Occup=    1.00000
   1     -0.13172842087842
   2       0.3522954538487
   3     0.065022160282951
   4    -0.012223552094896
   5    0.0086466462871583
   6     -0.17455524305433
   7      0.47588374172515
   8    -0.034098195604235
   9    -0.013370356929383
  10     0.010839542001624
  11    -0.067275968629502
  12      0.18456554599275
  13     0.035951892574591
  14     0.097573446883582
  15    -0.076355983552388
  16     0.049901926525013
  17     -0.19705586355632
  18    -0.019639552900931
  19     0.014092927550059
  20    -0.010699559729649
  21     -0.05505657620895
  22      0.14092575391937
  23    -0.0085552425174253
  24     0.025420632098483
  25    -0.019657544350724
  26    -0.039821688135073
  27      0.10050116472546
  28     -0.02980843284318
  29    -0.0082856084782641
  30    0.0068365520653395
  31      0.07642343771245
  32     0.076461938740319
  33     0.076465262556082
  34      0.10778250904477
  35      0.10780835028905
  36     0.024745335469983
  37     0.026837636193692
  38     0.018668694627563
 Sym= A
 Ene=   -0.6424309579
 Spin= Alpha
 Occup=    1.00000
   1     0.084710916983641
   2     -0.23413704451788
   3    -0.016211169826735
   4    0.0042681376293732
   5     -0.00310572066189
   6     0.037954182997104
   7     -0.10341218683509
   8     0.071249823136162
   9    -0.028524492574522
  10     0.021238056329186
  11    -0.053642517659563
  12      0.15486522792507
  13      0.13986196817694
  14    -0.025945267326653
  15     0.018325537258684
  16     0.027572926115941
  17      -0.1122371422582
  18     0.043596210393124
  19     -0.02251452570146
  20     0.016933674706375
  21      -0.1731621535345
  22      0.45000330531454
  23     0.032637218692573
  24     0.038598865723617
  25    -0.030448562220636
  26     -0.14470346704038
  27      0.37694973506719
  28    -0.078969437539592
  29    -0.043905356426582
  30     0.035191969435259
  31    -0.058706371880623
  32    -0.059456341886436
  33     -0.05945810511572
  34    -0.018859842595269
  35    -0.018852413265815
  36      0.11202681200098
  37     0.087643569591981
  38     0.085764283061732
 Sym= A
 Ene=   -0.5574781611
 Spin= Alpha
 Occup=    1.00000
   1     -0.15134249033038
   2      0.44775953443171
   3    -0.096682193065516
   4     0.021983756613037
   5    -0.015815493620363
   6      0.10134951624527
   7     -0.30641074261591
   8     -0.14402451071075
   9     0.066250376352389
  10    -0.049605535258198
  11     0.086429592248245
  12      -0.2555544811531
  13    -0.017798669496514
  14     -0.10094108206641
  15     0.078740046124466
  16    -0.037135647627624
  17      0.15850857854934
  18    -0.024152514989479
  19     -0.03626298489172
  20     0.028522141083451
  21    -0.034035489426138
  22     0.090096788385914
  23      0.11802117408726
  24    -0.0094892675060288
  25    0.0058227242357207
  26    -0.089492707025964
  27      0.24738980006674
  28    0.0052536516950361
  29    -0.027400243264159
  30     0.021244436896241
  31      0.15401912205051
  32      0.14791199176356
  33      0.14791539029896
  34     -0.10016971793053
  35     -0.10019263382846
  36     0.043284912423695
  37      0.05645547751105
  38      0.08518052507297
 Sym= A
 Ene=   -0.5018775284
 Spin= Alpha
 Occup=    1.00000
   1      0.05176586196232
   2     -0.16024021344269
   3     0.082012398499317
   4      -0.0145125649542
   5     0.010196720238731
   6    -0.059523441554953
   7      0.18200343222411
   8     0.031657395266618
   9     0.036592955586242
  10    -0.028894234429682
  11      0.07999200880726
  12     -0.24906415773706
  13     -0.18772992679934
  14     0.095425624654312
  15    -0.071734627725548
  16    -0.053393229933501
  17      0.23733077039863
  18     -0.15536690627217
  19     0.030980026874435
  20    -0.022044511232175
  21     0.090467555035071
  22     -0.27179635118958
  23      0.22178281226495
  24     0.080378499502254
  25    -0.065443300874781
  26     -0.13934265569639
  27      0.40279784155648
  28     0.079994973967673
  29     0.039828321802541
  30    -0.032030315153283
  31    -0.066992692920762
  32     -0.06476460693648
  33    -0.064769376496359
  34     0.080720227375715
  35     0.080745368093212
  36     -0.13335607116543
  37      0.16887520660705
  38      0.16652054119661
 Sym= A
 Ene=   -0.4315144722
 Spin= Alpha
 Occup=    1.00000
   1    -0.017062015552833
   2     0.058644094054625
   3     -0.12682485649645
   4     -0.12228068075455
   5     0.096825681894593
   6     0.059964299072306
   7     -0.19802865008784
   8    -0.055515140062692
   9     -0.27490894838627
  10      0.21461615228619
  11     -0.10711308251314
  12      0.35583323277051
  13      -0.1161912239407
  14      0.13518267608752
  15     -0.10355803778384
  16     0.062946132047734
  17     -0.29107525547186
  18    -0.0082932637121493
  19      0.22099403028123
  20     -0.17173931051023
  21     0.048781694491492
  22     -0.14628086682749
  23    -0.036545497591214
  24      0.12038830587186
  25    -0.093132955809858
  26    -0.034072651739072
  27      0.10595721495705
  28     0.024984024032594
  29     0.066432296014566
  30    -0.051987440695432
  31    -0.065444914583263
  32     0.097018656328009
  33     0.097062303283373
  34     -0.17962552499886
  35     -0.17971496248605
  36     -0.16461805457045
  37     0.079145008634148
  38     0.035420989760628
 Sym= A
 Ene=   -0.3927190495
 Spin= Alpha
 Occup=    1.00000
   1    2.468470918633e-05
   2    -8.1081771316503e-05
   3    0.0034722047553631
   4      0.19390087423427
   5      0.24970559453176
   6    -4.9951147516823e-05
   7    0.00016450993106101
   8    0.0044327510025112
   9      0.27330757234261
  10      0.35162430836136
  11    5.726096244806e-05
  12    -0.00018618356525525
  13    0.0021383455823402
  14      0.14203710822962
  15      0.18235474024172
  16    -1.098602462178e-05
  17    4.9172535133403e-05
  18    0.0015512571179985
  19       0.1072992322193
  20       0.1377005040849
  21    -7.7999682174423e-05
  22    0.00024981993153443
  23    0.00091580310596273
  24     0.035258247390509
  25     0.045831637209193
  26    3.6189704659871e-05
  27    -0.00013029362046547
  28    0.00025305286224046
  29      0.01392617789688
  30     0.018530000131028
  31    -0.0002165053310089
  32     -0.18806552865556
  33       0.1880327374006
  34      0.26439208658654
  35     -0.26449997676314
  36    0.00033684200239285
  37    -0.00031984411256836
  38    5.167347725867e-05
 Sym= A
 Ene=   -0.3889363947
 Spin= Alpha
 Occup=    1.00000
   1      0.01447585779308
   2      -0.0475798747862
   3     0.098710402990088
   4     -0.15179096082547
   5      0.11620283911498
   6    -0.024995587037399
   7     0.082616551600091
   8     -0.14972316078687
   9    -0.099610978910033
  10     0.078717242551519
  11     0.034732605226589
  12     -0.11300543258585
  13     -0.21802553640872
  14      0.12285567802958
  15     -0.09304595684432
  16    -0.0041688284366764
  17     0.018654113623588
  18     -0.22256283936562
  19      0.13311849063992
  20     -0.10088811075843
  21    -0.056931984996213
  22      0.18284813622041
  23       0.2386353185758
  24     -0.16868247861797
  25      0.12793383640424
  26     0.028001754544465
  27     -0.10179059068057
  28    -0.0044108492382867
  29     -0.22715013721873
  30      0.17666985610195
  31     -0.16527957838998
  32    0.0074545294435987
  33    0.0069423901262094
  34    -0.058688956133994
  35    -0.058022374323791
  36      0.24198756923839
  37     -0.23968872404143
  38     0.030924626950154
 Sym= A
 Ene=   -0.3582742286
 Spin= Alpha
 Occup=    1.00000
   1    0.0019827926844345
   2    -0.007196516148522
   3      0.14316160467311
   4     0.064352725695553
   5    -0.051978175202793
   6    -0.010112915503843
   7      0.03977491402325
   8     -0.12923828270025
   9     0.069301966422959
  10    -0.052205537142218
  11    -0.043818502526907
  12      0.14602354104703
  13     -0.15800852206377
  14     -0.17939450681858
  15      0.14159188726493
  16      0.08635160237351
  17     -0.42723260767526
  18      0.42809599593495
  19      0.17816168333054
  20     -0.14422465885513
  21     0.044168159497359
  22     -0.13479110557337
  23    -0.056917522662541
  24     -0.17751083152592
  25      0.13880095523994
  26    -0.021666001076068
  27     0.086867511409385
  28      0.31051412280131
  29    -0.0021417296950498
  30    -0.0024416447900448
  31     0.041961807993241
  32     -0.08483178292105
  33    -0.084872845210193
  34    -0.0020791612622483
  35     -0.00207238131043
  36     0.093484264102523
  37     0.020458337496544
  38       0.2461696068233
 Sym= A
 Ene=   -0.3195784697
 Spin= Alpha
 Occup=    1.00000
   1    0.0028886302449153
   2    -0.010026748218747
   3     0.054918436713261
   4      0.32858772249667
   5     -0.25626274073774
   6     0.020771381305187
   7    -0.078259417476251
   8    -0.0028831658675338
   9     0.018603583441401
  10     -0.01440814417143
  11    -0.021539990958712
  12     0.078232943941221
  13     -0.17404439612318
  14     0.032560856211959
  15    -0.023025705679679
  16     0.024969397603306
  17     -0.12789847848719
  18    -0.011713556527904
  19      0.27810636194857
  20     -0.21614622053916
  21    -0.021225177728263
  22     0.059306139569955
  23      0.19772637580571
  24      0.14753790078922
  25     -0.11735403238348
  26    -0.0037320413536079
  27    -0.0063565301283434
  28     -0.23729776139123
  29     -0.12100214565533
  30     0.097241226522655
  31      0.35722470532631
  32     -0.16662496791822
  33     -0.16662595876573
  34     -0.03082693060643
  35    -0.030849035434236
  36     -0.11841312852352
  37     -0.12269086027088
  38     -0.13245329125036
 Sym= A
 Ene=    -0.309431654
 Spin= Alpha
 Occup=    1.00000
   1    -4.8004239861309e-06
   2    1.687884438242e-05
   3    -0.0039289622731735
   4     -0.23727574250931
   5     -0.30506332793636
   6    -3.8663677827035e-06
   7    1.5129860171575e-05
   8    0.00052674770258839
   9     0.037407843734936
  10     0.048095824804858
  11    3.5405786737284e-06
  12    -1.1922625890115e-05
  13    0.0043469257932192
  14      0.25516288933725
  15       0.3281322918891
  16    -1.3174518290632e-06
  17    5.3137899946894e-06
  18    0.0053738731711992
  19      0.31491423021601
  20      0.40499847829576
  21    -5.0034334194149e-06
  22    1.5774334504814e-05
  23    0.0015113872169971
  24     0.089018812409817
  25      0.11439388642499
  26    -3.1319529390799e-06
  27    9.4988026860639e-06
  28    0.00057744037395521
  29     0.037222224700761
  30      0.04781777808991
  31    -3.0321346212605e-05
  32      0.27306298532497
  33     -0.27311771024846
  34     0.046002235381549
  35     -0.04607007704815
  36    -2.954553597096e-05
  37    2.1576799417845e-05
  38    -4.8581113722689e-05
 Sym= A
 Ene=   -0.3033668988
 Spin= Alpha
 Occup=    1.00000
   1     0.015466942498387
   2     -0.05915936618778
   3     -0.37552746219902
   4      0.16352883754567
   5     -0.12228770543324
   6     0.011198625160578
   7     -0.04566915637081
   8      0.40419657856979
   9    -0.099382004175415
  10     0.071955938028169
  11    -0.029615680382115
  12      0.11079655865705
  13     0.033611929927566
  14      0.14587439692901
  15      -0.1137537937741
  16    -0.016018680237708
  17      0.08438535991274
  18     -0.16611633746555
  19    -0.011227496160095
  20     0.011104933499786
  21     0.025548509518257
  22    -0.080538024409439
  23    -0.029734597404199
  24     -0.11355884840047
  25      0.08875069765066
  26     0.012560793149877
  27    -0.036437070700667
  28      0.28632130506984
  29     -0.11405988193688
  30     0.084924481432691
  31      0.21863425825145
  32     0.055979636853263
  33     0.055897009961497
  34     0.076637810063649
  35     0.076638854270016
  36     0.082386219517968
  37     -0.13399709110961
  38      0.26362354822677
 Sym= A
 Ene=   -0.2828953987
 Spin= Alpha
 Occup=    1.00000
   1    -0.015042716616154
   2     0.058652273130879
   3      0.31005268835362
   4        0.155030690869
   5     -0.12477315832834
   6    -0.0072525741895189
   7      0.03215786431824
   8     -0.30626365338956
   9     -0.16841411542755
  10      0.13515985944364
  11    -0.025404688051358
  12       0.1050088320523
  13      0.18744212304646
  14      0.15273331160791
  15      -0.1214145091147
  16    -0.038786792908617
  17      0.19976958955289
  18     -0.26327252072247
  19     -0.24202998725535
  20      0.19143111095959
  21    0.0039890553333363
  22    -0.0021043726989734
  23     -0.18626655812038
  24    -0.019477231666927
  25     0.017560264065711
  26    0.0035432140075862
  27    -0.0015246283230348
  28      0.18740936378688
  29      0.03373723720517
  30     -0.02873108659035
  31      0.17344202262531
  32     -0.18330420081315
  33     -0.18345720367187
  34     -0.20166865069865
  35     -0.20186988204625
  36    0.0045796454733993
  37    -0.0057402904581334
  38      0.14355748327921
 Sym= A
 Ene=   -0.2750453531
 Spin= Alpha
 Occup=    1.00000
   1    -2.7631927300113e-06
   2    1.4161267959703e-05
   3    0.0032796760154947
   4      0.18641690169477
   5      0.23951903501465
   6    5.9527004803074e-06
   7    -1.7544499018462e-05
   8    -0.0039629887809261
   9     -0.22654537670042
  10     -0.29114244488665
  11    9.1606930840876e-07
  12    -2.1471037276194e-06
  13    0.0023562288932311
  14      0.14035076799572
  15      0.18029595167192
  16    -9.1857066903068e-06
  17    4.6883149643875e-05
  18    0.0047054956748327
  19      0.28960298986923
  20      0.37231422559527
  21    -7.0903786709138e-06
  22    3.9026475479526e-05
  23    0.00070175088094738
  24     0.046055484732971
  25     0.059506847087744
  26    1.081571264501e-05
  27    -2.971125625202e-05
  28    0.00026844958319278
  29     0.014413869904809
  30     0.018172570237825
  31    0.00011189849449149
  32      -0.2639481177422
  33      0.26377322699274
  34     -0.31025345662125
  35      0.31008525834234
  36    0.0001880312462261
  37    0.00019360245318374
  38    -7.6516757023081e-05
 Sym= A
 Ene=   -0.2741567866
 Spin= Alpha
 Occup=    1.00000
   1    0.0068334333692964
   2    -0.024888820782729
   3    -0.035736264493988
   4     0.079293177281076
   5    -0.061397986665623
   6    0.0096353326462731
   7     -0.03952552726418
   8     0.039630551004679
   9     -0.02084669290209
  10      0.01594242137723
  11     0.018092976218527
  12    -0.071341247144283
  13     -0.13945133167216
  14     0.069329418147217
  15    -0.052204927778625
  16    0.0019536301076108
  17    -0.010392357498933
  18     -0.28275036380481
  19      0.21539013143043
  20     -0.16407037414621
  21    -0.014928679054774
  22     0.072702820457152
  23    -0.065269098928891
  24      -0.2519593708559
  25      0.19677676290586
  26     0.017047494450299
  27    -0.049500314889852
  28    -0.045214268667245
  29      0.32076553892584
  30     -0.24885584092521
  31      0.10164408239516
  32    -0.028753840673146
  33    -0.029036910720782
  34      0.00507261358618
  35    0.0047469282324374
  36      0.35046862080552
  37         0.37485469247
  38     -0.22259330606645
 Sym= A
 Ene=   -0.1969911758
 Spin= Alpha
 Occup=    1.00000
   1    0.0042554362708677
   2    -0.017695106898214
   3    -0.084134373745754
   4     0.064198103489792
   5    -0.048817929700635
   6    -0.030930581830479
   7      0.13206632574423
   8     0.063337665489921
   9     -0.27436529159564
  10      0.21253864143794
  11    0.0074146456571383
  12    -0.029366014776366
  13     -0.19266220356468
  14      0.13432432951102
  15     -0.10193224290766
  16    -0.00063157291446984
  17    0.0021357457103987
  18      0.54193759252172
  19     -0.41431545031636
  20      0.31502122655452
  21     0.036365975980178
  22     -0.15443712946424
  23      0.30943277815831
  24     -0.11102019282993
  25     0.082243971030248
  26    -0.010947497241282
  27     0.033222427361853
  28     -0.14110990426768
  29     0.032190811742058
  30    -0.023165598673369
  31      0.10369536492356
  32     -0.02852403873084
  33    -0.028529264922577
  34    -0.063596338836275
  35    -0.063604112263758
  36      0.15392751115848
  37      0.10236176176388
  38     -0.16646252479307
 Sym= A
 Ene=   -0.1696692531
 Spin= Alpha
 Occup=    1.00000
   1    3.8609822953379e-07
   2    -1.5695994839786e-06
   3    0.00021641856024749
   4     0.012950829896566
   5     0.016655270090634
   6    -8.9634403565542e-07
   7    4.1404397848667e-06
   8    -0.00055266062619371
   9    -0.032751300599229
  10    -0.042121094874926
  11    -5.9413579148737e-07
  12    2.6885292318395e-06
  13    0.00069475156434365
  14     0.040530207366085
  15     0.052116141776381
  16    -1.4799691220736e-07
  17    1.2178825242315e-06
  18    -0.0036362199880729
  19     -0.21415325692638
  20     -0.27536290225716
  21    -3.2794029282799e-07
  22    1.4795064692176e-06
  23    0.0062201513584826
  24      0.36575574488077
  25      0.47030222325209
  26    2.2222912220947e-06
  27    -7.8087655292864e-06
  28    0.0061530973450126