[Molden Format]
made by pyscf v[2.12.1]
[Atoms] (AU)
C   1   6    -3.67285279844341     1.45125297188223    -1.08007296649516
C   2   6    -0.85428848913213     0.99836120886897    -0.76511231331390
C   3   6    -0.29562875492696    -1.22688578911262     0.95805335063200
O   4   8    -1.96427582017915    -2.49417392276844     1.96567421751133
C   5   6     2.38402178696755    -1.93077097599061     1.47003684956041
C   6   6     4.40909009657396    -0.74835044258901     0.52368090363947
H   7   1    -4.00731542523018     3.06437988359470    -2.33016459241744
H   8   1    -4.60501690116886    -0.20514866808278    -1.89841886473806
H   9   1    -4.57011365964815     1.84824663613086     0.74192537376549
H   10   1     0.01296352121452     2.69590218656576     0.04074249524562
H   11   1    -0.02224207648613     0.62445999786252    -2.62282647732883
H   12   1     2.60714175049494    -3.54321758629825     2.72105444128372
H   13   1     4.28357448738035     0.86679847607675    -0.73073819510806
H   14   1     6.29494228258366    -1.40085397614008     1.00620357228591
[GTO]
1 0
 s    3 1.00
             71.616837    0.15432897000916
             13.045096    0.53532814003178
             3.5305122     0.4446345400264
 s    3 1.00
             2.9412494  -0.099967230075964
             0.6834831    0.39951283030359
             0.2222899    0.70011547053201
 p    3 1.00
             2.9412494    0.15591627210511
             0.6834831    0.60768372820466
             0.2222899    0.39195739529202

2 0
 s    3 1.00
             71.616837    0.15432897000916
             13.045096    0.53532814003178
             3.5305122     0.4446345400264
 s    3 1.00
             2.9412494  -0.099967230075964
             0.6834831    0.39951283030359
             0.2222899    0.70011547053201
 p    3 1.00
             2.9412494    0.15591627210511
             0.6834831    0.60768372820466
             0.2222899    0.39195739529202

3 0
 s    3 1.00
             71.616837    0.15432897000916
             13.045096    0.53532814003178
             3.5305122     0.4446345400264
 s    3 1.00
             2.9412494  -0.099967230075964
             0.6834831    0.39951283030359
             0.2222899    0.70011547053201
 p    3 1.00
             2.9412494    0.15591627210511
             0.6834831    0.60768372820466
             0.2222899    0.39195739529202

4 0
 s    3 1.00
             130.70932    0.15432896872316
             23.808861    0.53532813557095
             6.4436083    0.44463453632131
 s    3 1.00
             5.0331513  -0.099967228656673
             1.1695961    0.39951282463148
              0.380389    0.70011546059208
 p    3 1.00
             5.0331513    0.15591626847816
             1.1695961    0.60768371406861
              0.380389    0.39195738617424

5 0
 s    3 1.00
             71.616837    0.15432897000916
             13.045096    0.53532814003178
             3.5305122     0.4446345400264
 s    3 1.00
             2.9412494  -0.099967230075964
             0.6834831    0.39951283030359
             0.2222899    0.70011547053201
 p    3 1.00
             2.9412494    0.15591627210511
             0.6834831    0.60768372820466
             0.2222899    0.39195739529202

6 0
 s    3 1.00
             71.616837    0.15432897000916
             13.045096    0.53532814003178
             3.5305122     0.4446345400264
 s    3 1.00
             2.9412494  -0.099967230075964
             0.6834831    0.39951283030359
             0.2222899    0.70011547053201
 p    3 1.00
             2.9412494    0.15591627210511
             0.6834831    0.60768372820466
             0.2222899    0.39195739529202

7 0
 s    3 1.00
            3.42525091    0.15432897070298
            0.62391373    0.53532814243847
             0.1688554    0.44463454202535

8 0
 s    3 1.00
            3.42525091    0.15432897070298
            0.62391373    0.53532814243847
             0.1688554    0.44463454202535

9 0
 s    3 1.00
            3.42525091    0.15432897070298
            0.62391373    0.53532814243847
             0.1688554    0.44463454202535

10 0
 s    3 1.00
            3.42525091    0.15432897070298
            0.62391373    0.53532814243847
             0.1688554    0.44463454202535

11 0
 s    3 1.00
            3.42525091    0.15432897070298
            0.62391373    0.53532814243847
             0.1688554    0.44463454202535

12 0
 s    3 1.00
            3.42525091    0.15432897070298
            0.62391373    0.53532814243847
             0.1688554    0.44463454202535

13 0
 s    3 1.00
            3.42525091    0.15432897070298
            0.62391373    0.53532814243847
             0.1688554    0.44463454202535

14 0
 s    3 1.00
            3.42525091    0.15432897070298
            0.62391373    0.53532814243847
             0.1688554    0.44463454202535

[5d]
[7f]
[9g]

[MO]
 Sym= A
 Ene=    -20.24789682
 Spin= Alpha
 Occup=    1.00000
   1    3.6972572134207e-06
   2    -3.4751099609297e-05
   3    -0.00011695925422561
   4    4.2253369469785e-05
   5    -3.1317002942958e-05
   6    -2.1943044823824e-05
   7    0.00023569732145976
   8    -0.00043019622593419
   9    -0.00017998168944162
  10    0.00014565759681866
  11    0.00055821423575132
  12    -0.0071360905380959
  13    0.0044766407291702
  14    0.0034657825846946
  15    -0.0027544973777555
  16      0.99427247483441
  17     0.025894085891219
  18     0.003953291187735
  19    0.0030129829824291
  20    -0.0023954389274955
  21    -2.501832157295e-05
  22    0.00040140166036821
  23    -0.00032764413304819
  24    -0.00028865751866439
  25    0.00022881732477417
  26    5.4786526204282e-06
  27    3.4381525642787e-05
  28    3.1948004147455e-05
  29    -4.8375680678283e-05
  30    3.7199920067938e-05
  31    -2.1621910906709e-05
  32    -8.5484692951096e-05
  33    -8.5480136022524e-05
  34    3.2363502692586e-05
  35    3.2362687944845e-05
  36    -0.00024495070251263
  37    -1.2545306869932e-05
  38    -2.0202822103695e-05
 Sym= A
 Ene=      -11.105197
 Spin= Alpha
 Occup=    1.00000
   1    -0.00051550028183682
   2     0.000190459774054
   3    -2.3116984826863e-05
   4    0.00020400263641135
   5    -0.00015834695927107
   6    -0.0022573337548957
   7    -0.0054633935558007
   8    -0.00058586635639191
   9      0.00319008153789
  10    -0.0024731517949975
  11      0.99250596085998
  12      0.03316465413871
  13    -5.2980902623263e-05
  14    -0.00052651588703578
  15    0.00041018311812613
  16    0.00018858966982122
  17    -0.0058707864021673
  18    -0.0013334945328272
  19    -0.00099785007330248
  20    0.00079364840111541
  21    -0.00080273959065109
  22    -0.0059717732349973
  23    0.0041139543593344
  24    -0.00094684770534738
  25    0.00068197336972973
  26    -0.00015866082385741
  27    0.00011481734417385
  28    -5.1142800982615e-05
  29    8.4433066650326e-05
  30    -6.4986667245607e-05
  31    -0.00015194610194993
  32    -0.00016027142989235
  33    -0.00016026504532438
  34     -0.00015009136179
  35    -0.00015009819586118
  36    -1.2742486059294e-05
  37    -0.00011165483219828
  38    -3.0654366945192e-05
 Sym= A
 Ene=    -11.05455845
 Spin= Alpha
 Occup=    1.00000
   1    -0.0079542448967566
   2    -0.0061684407619819
   3    -0.0042336829331102
   4    0.00069558866146925
   5    -0.00048500333301264
   6      0.99185621656318
   7     0.037790069391358
   8    0.00012021609928278
   9    -1.5170580685985e-05
  10    1.021664356677e-05
  11    0.0032275146496761
  12    -0.005897885835304
  13    0.00097297203930447
  14    -0.0033748044902297
  15      0.00261168104678
  16    -1.8603951905441e-05
  17    0.0002285192635613
  18    -3.6946746792921e-05
  19    0.00017169761583169
  20    -0.00013303836053227
  21    -0.00065924298475516
  22    0.00014484739481776
  23    2.4710618101998e-05
  24    4.0552080990776e-05
  25    -3.1864206116938e-05
  26    -0.00030315486257047
  27    -3.0687897145226e-05
  28    0.00014801651767599
  29    -9.4899059609447e-06
  30    5.4209514246079e-06
  31    0.0001372809893732
  32    0.00010180576625309
  33    0.00010180068285493
  34    -0.006992000231746
  35    -0.0069919627629403
  36    -6.0223150859939e-05
  37    -7.7170158427608e-05
  38    -4.8340313912569e-05
 Sym= A
 Ene=    -11.03875838
 Spin= Alpha
 Occup=    1.00000
   1      0.99191897339424
   2     0.037676106435085
   3    -0.00017041800588659
   4    6.5548966935577e-05
   5    -4.8750881521544e-05
   6    0.0089408029085391
   7    -0.0054903914770755
   8    0.0042263778782913
   9    -0.00068050688980675
  10    0.00047337411032384
  11    0.00061094392120618
  12    5.407876026654e-05
  13    0.0001717092580142
  14    1.5752845026277e-05
  15    -1.4521625011164e-05
  16    6.4659404424559e-06
  17    2.9202694700361e-05
  18    7.1750726832716e-05
  19    -4.2199147935711e-05
  20    3.1868944789008e-05
  21    -0.00055796819022208
  22    -0.00010033951653889
  23    5.1609492361504e-05
  24    -4.895865851417e-05
  25    3.7392324424743e-05
  26    -9.6368388426791e-05
  27    1.1058726609404e-05
  28    1.9760738338596e-05
  29    -4.2371682311955e-06
  30    3.033883571434e-06
  31    -0.0069365038976599
  32    -0.0069052090948168
  33    -0.0069051242436381
  34    -1.2082090856517e-05
  35     -1.2087222994e-05
  36    -8.5341919771367e-06
  37    -3.8061654910688e-05
  38    -8.9890926819318e-06
 Sym= A
 Ene=    -11.02760837
 Spin= Alpha
 Occup=    1.00000
   1    0.00057217052625821
   2    -6.5666011606311e-05
   3    -5.1208376901288e-05
   4    4.3916226494682e-05
   5    -3.3476736148938e-05
   6    0.00068681832451708
   7    0.00024271218417359
   8    -5.2194067634915e-05
   9    -1.0244848058404e-05
  10    8.6564759564106e-06
  11    0.0017852728713214
  12    -0.0060313162171142
  13     -0.00399080543938
  14    0.00098911505374238
  15    -0.00071646526677958
  16    -1.4230794637309e-05
  17    0.00027850035404972
  18    0.00017182250584363
  19    2.4412983178764e-05
  20    -2.1251734175202e-05
  21      0.99210570671769
  22     0.036435813524362
  23    0.0012905813409905
  24    0.00076589036234765
  25    -0.0006128139518205
  26     0.009174700032782
  27    -0.0078974923305523
  28    0.0038842414781787
  29    0.0022376486630111
  30    -0.0017915886885125
  31    -1.024409018279e-05
  32    -2.7235518800718e-07
  33    -2.7241676079582e-07
  34    -0.00011347195233415
  35    -0.00011347213365714
  36    -0.0069085207110577
  37    6.3341434446409e-05
  38    6.6342130993271e-05
 Sym= A
 Ene=    -11.01295065
 Spin= Alpha
 Occup=    1.00000
   1    9.4760174785366e-05
   2    -3.5869825582125e-05
   3    -2.9770118379501e-05
   4    5.7055383291032e-07
   5    -5.0509836189127e-08
   6    0.00031988729809328
   7    3.3534198314069e-06
   8    -0.00010473200429942
   9    5.7049696952247e-05
  10    -4.2983679096438e-05
  11    0.00016491183127174
  12    0.00032608676078663
  13    9.5521771951091e-05
  14    -7.9276827641329e-05
  15    6.039023245033e-05
  16    1.0876762680607e-05
  17    -9.8375170580058e-05
  18    -5.6021071689935e-05
  19    -1.175506901972e-05
  20    9.8825753241737e-06
  21    -0.0084282520658671
  22    -0.0085945512457683
  23    -0.0038580003459942
  24    -0.0022909197861799
  25    0.0018326743750439
  26      0.99212668339694
  27     0.036619282662721
  28    -0.0015172321251473
  29    -0.00099098938281429
  30    0.00079086298205205
  31    2.2851924267085e-06
  32    4.1115492459302e-07
  33    4.1126876247478e-07
  34    -1.4495801922314e-05
  35    -1.4501026572421e-05
  36    0.00019769590213457
  37    -0.0067953785856782
  38    -0.0068526966470009
 Sym= A
 Ene=     -1.30330341
 Spin= Alpha
 Occup=    1.00000
   1    -0.0079916850812226
   2     0.019232340693575
   3    0.0065521364760762
   4    -0.0041492007132115
   5    0.0031401824331451
   6    -0.023614371818481
   7     0.059544524897751
   8    0.0026389121406299
   9    -0.022809041017816
  10     0.017703471375666
  11     -0.12800718803333
  12       0.2978640018329
  13     -0.10716215366408
  14      -0.0829037795899
  15     0.065890374369808
  16     -0.21337451063384
  17      0.74637726909891
  18      0.11712461153786
  19      0.08868148859359
  20    -0.070515321311931
  21    -0.024760114891469
  22     0.059200655441453
  23    -0.029329821913012
  24    0.0067423186999182
  25    -0.0048559008465208
  26    -0.0050726894719366
  27     0.012113568611465
  28    -0.0061826179571716
  29    -0.0027973563232743
  30    0.0022573303293324
  31     0.001700250873603
  32    0.0046775632143218
  33    0.0046774520254702
  34    0.0068040272685746
  35    0.0068039913756672
  36     0.011114329926373
  37    0.0021709805899802
  38    0.0013654371612468
 Sym= A
 Ene=    -1.021024805
 Spin= Alpha
 Occup=    1.00000
   1    -0.088871019565601
   2      0.23929803385548
   3     0.049012741444709
   4    -0.0065623111044373
   5     0.004455332971401
   6     -0.13218558394392
   7      0.36133449715098
   8    -0.010101641482262
   9    -0.015037230188189
  10     0.011827851042209
  11    -0.065226401627598
  12      0.18182757994891
  13     0.097241687053793
  14     0.082931613337196
  15     -0.06578088113411
  16     0.063373277004391
  17     -0.24326424897496
  18    -0.0028203974637792
  19    0.0043729582470905
  20    -0.0033633126129735
  21      -0.1223393398291
  22      0.32077988403688
  23     0.031667362882077
  24     0.049358368289718
  25    -0.038806165753429
  26     -0.10408911814563
  27      0.26974580769409
  28    -0.071073150389782
  29    -0.032616534923852
  30     0.026307178867613
  31     0.053573214547811
  32      0.05157924221807
  33     0.051578432070871
  34     0.089165164922771
  35     0.089164646177343
  36     0.065940803296089
  37     0.066697362993272
  38     0.058093054263541
 Sym= A
 Ene=   -0.9870545807
 Spin= Alpha
 Occup=    1.00000
   1      0.12038583163789
   2     -0.33039017963428
   3    -0.047600576513436
   4    0.0068572531424165
   5    -0.0047031939052939
   6       0.1137111957434
   7     -0.31373256246679
   8     0.059396160054935
   9    -0.013984958683779
  10     0.010090757911743
  11    -0.0058272825520285
  12     0.020348319807626
  13     0.087549823476398
  14    -0.065684299180072
  15      0.04992443367833
  16    -0.0014960390268343
  17     0.004923225831274
  18     0.025988821452135
  19    -0.019408975253965
  20     0.014750844696213
  21     -0.13042758158494
  22      0.34519145899144
  23      0.06871095239059
  24     0.035936910065243
  25    -0.028858481505707
  26     -0.12351863372654
  27      0.32508737960098
  28    -0.069832276471147
  29    -0.044485704166959
  30       0.0355216773469
  31     -0.07968468163567
  32    -0.078371584973881
  33    -0.078370318458999
  34    -0.074539579293171
  35    -0.074539007251518
  36     0.086652826127468
  37     0.075814078085985
  38     0.079631153874514
 Sym= A
 Ene=    -0.847237259
 Spin= Alpha
 Occup=    1.00000
   1     -0.14598595667311
   2      0.43222705109564
   3    -0.079639820616089
   4     0.019337971881887
   5    -0.013987787615112
   6     0.088091414219205
   7     -0.26593200600385
   8     -0.14774457412704
   9     0.066820142564133
  10    -0.050013148668789
  11      0.09616808639361
  12     -0.28799489644974
  13    -0.073379294206906
  14    -0.093940313947636
  15     0.074026246030752
  16    -0.048499724478095
  17      0.20205525479005
  18    -0.042433521472622
  19    -0.028778047519162
  20     0.022941291076442
  21    0.00023694187343688
  22    -0.0073645494216361
  23        0.148015702705
  24    -0.0052542572174004
  25    0.0021286462869128
  26     -0.08783104007442
  27      0.25011617122561
  28     0.020541199564121
  29    -0.021444289967697
  30     0.016406961145099
  31      0.15247516701321
  32      0.14507708314408
  33       0.1450742611876
  34    -0.096203592348489
  35    -0.096202788026048
  36     0.012314240750334
  37     0.068246734160445
  38      0.10191470764013
 Sym= A
 Ene=   -0.7808367157
 Spin= Alpha
 Occup=    1.00000
   1     0.064451658140859
   2     -0.19792626752461
   3     0.085158539232057
   4    -0.015499028519573
   5     0.010929064419218
   6    -0.070368978491146
   7      0.21635536238227
   8     0.054942139606251
   9     0.024665020503237
  10    -0.019907128603326
  11     0.057114225416952
  12     -0.17789309884518
  13      -0.1809977849941
  14     0.086009842420467
  15    -0.064496041027747
  16    -0.044003676707807
  17      0.19105263991946
  18     -0.10602914631166
  19     0.018735859398535
  20    -0.013169037403325
  21      0.10884344369386
  22      -0.3342442738057
  23      0.17196392847966
  24     0.078520543679138
  25     -0.06333690959706
  26     -0.12245855170821
  27       0.3675231229824
  28     0.094587330093051
  29     0.060088113334867
  30    -0.047978723262566
  31    -0.083514346457537
  32    -0.080138375999712
  33    -0.080136506519558
  34     0.096297392235004
  35     0.096296205727456
  36     -0.16571098172283
  37      0.18472832567349
  38      0.17012319807339
 Sym= A
 Ene=    -0.666624038
 Spin= Alpha
 Occup=    1.00000
   1    -0.025105311568483
   2     0.083462417767753
   3     -0.13831004420499
   4    -0.056591439703394
   5     0.045834091245556
   6     0.064438298088576
   7     -0.21022698798932
   8    -0.015454364624347
   9     -0.20727550825194
  10      0.16139525577114
  11     -0.11276702750668
  12      0.37694481846667
  13      0.01547438959707
  14     0.069901308156502
  15    -0.054567047379255
  16      0.05895899840001
  17     -0.27203725702275
  18     0.081517307163297
  19      0.13156904891251
  20     -0.10339862400159
  21     0.058061138997114
  22     -0.18071809309845
  23     -0.16645443554905
  24      0.17115205488661
  25     -0.13090079040553
  26    -0.034044160951113
  27      0.11500645726705
  28     0.022620785443093
  29      0.15698893277283
  30     -0.12238773963669
  31    -0.0057960095611836
  32     0.092006915669882
  33     0.092001027031581
  34     -0.15971500090245
  35     -0.15970854216216
  36     -0.24114277100308
  37      0.17735039972665
  38     0.010118865237718
 Sym= A
 Ene=   -0.6125670692
 Spin= Alpha
 Occup=    1.00000
   1    -0.0084640296344842
   2      0.02524277861522
   3    -0.036271418414677
   4      0.16750394515839
   5      -0.1297729123201
   6    0.0086600637784021
   7    -0.028653855379026
   8      0.12900075721521
   9      0.19590196760628
  10      -0.1540385594075
  11     0.023237736155087
  12    -0.084612295894815
  13      0.25472303204598
  14     -0.15802569830449
  15       0.1195342904233
  16    -0.029490758526056
  17      0.14221064507892
  18      0.10489998961568
  19     -0.20102841147435
  20      0.15495585396469
  21    0.0085384961688969
  22    -0.028850035872646
  23     -0.21047104897831
  24      0.10691786752088
  25    -0.080364087197468
  26    -0.0039788405598675
  27     0.021026252862729
  28    -0.084102034379782
  29      0.21644618832512
  30     -0.16721639711805
  31      0.17775474869329
  32     -0.04260418760712
  33    -0.042588642305643
  34        0.118580182494
  35      0.11856122984433
  36     -0.12347273768878
  37      0.22790696623977
  38     -0.13139704011219
 Sym= A
 Ene=   -0.5973830211
 Spin= Alpha
 Occup=    1.00000
   1    -1.6591533078507e-07
   2    1.1723013876489e-06
   3    0.0033498319646592
   4      0.19702915052302
   5      0.25335579441286
   6    5.0219969881014e-07
   7    -1.9605243157815e-06
   8    0.0045870475054727
   9      0.27022293444863
  10      0.34748397649344
  11    -3.0911402180002e-06
  12    1.0802593847299e-05
  13     0.001796128039725
  14      0.10621857121622
  15      0.13657625357985
  16    2.9700933407036e-06
  17    -1.4564421198836e-05
  18    0.0012576549870014
  19     0.073774370216125
  20     0.094840791233991
  21    7.3795817722216e-07
  22    -2.1891482330465e-06
  23    0.0003073461857928
  24     0.017943850977865
  25     0.023083506585388
  26    -4.7816284992336e-07
  27    1.7009194621701e-06
  28    7.412261319378e-05
  29    0.0037405727460574
  30    0.0048220292250363
  31    -1.99728023919e-06
  32      -0.2062616054264
  33      0.20626477923715
  34      0.29272344144579
  35     -0.29273656388115
  36    3.4604481588431e-06
  37    -6.1344487170348e-06
  38    1.0627985883916e-05
 Sym= A
 Ene=   -0.5817932991
 Spin= Alpha
 Occup=    1.00000
   1    0.00048034729171826
   2    -0.001908116143413
   3     0.051187704384047
   4     0.054519870852875
   5    -0.043083122844521
   6    -0.0059483027005435
   7     0.024388110935455
   8    -0.028751655652301
   9     0.049086118558322
  10    -0.037805032803749
  11    -0.046711159122375
  12      0.15594359666824
  13    -0.0085205248999023
  14     -0.14245629751074
  15      0.11089543337273
  16     0.057548569572776
  17     -0.28680154624681
  18       0.2970103469821
  19     0.049604411865283
  20     -0.04250648686744
  21     0.039239377229585
  22     -0.11768895242716
  23     -0.20766514889206
  24     -0.23241867928177
  25      0.18349613571792
  26    -0.011153012721557
  27     0.057698694424922
  28      0.43821344813974
  29     0.055668281930045
  30    -0.049087702768864
  31     0.047342226820531
  32    -0.044505023270794
  33    -0.044511098716322
  34     0.017824149643089
  35     0.017835855443779
  36      0.15591208614687
  37     0.065617852492223
  38      0.32951501871242
 Sym= A
 Ene=   -0.5152893851
 Spin= Alpha
 Occup=    1.00000
   1    0.0016032733817367
   2    -0.0051145222516269
   3     0.082074061568241
   4      0.31218523261772
   5     -0.24385659162763
   6     0.013699205041623
   7    -0.049044389381611
   8    -0.022533770533358
   9     0.024217680201527
  10    -0.018550440423624
  11     -0.04516850614033
  12      0.16403435066939
  13     -0.13554782802084
  14    -0.051273575415799
  15     0.041658552724625
  16     0.039368142569001
  17     -0.21066415154125
  18      0.18337378441897
  19      0.19329971096675
  20     -0.15275854829771
  21    0.0088965180070069
  22    -0.041473585294905
  23      0.13764235436135
  24      0.17373534202924
  25     -0.13693393530047
  26    -0.013429122702113
  27     0.036282077001744
  28    -0.075874439986214
  29     -0.20250254064821
  30      0.15848854472165
  31      0.34818170557646
  32     -0.17605004235057
  33     -0.17603152229621
  34    -0.026618027114579
  35    -0.026600734665696
  36     -0.21409321241736
  37      -0.2197345623966
  38     0.047961920688181
 Sym= A
 Ene=   -0.4995995278
 Spin= Alpha
 Occup=    1.00000
   1     0.006715226130857
   2    -0.028827634128394
   3     -0.31884256206706
   4     0.060349212427092
   5     -0.04273271262447
   6     0.010731732256047
   7    -0.044197422878523
   8      0.33308854072806
   9    -0.080168827797318
  10     0.057952024797114
  11    -0.014505965733009
  12     0.058352307301385
  13      0.21622152269422
  14      0.14375040971039
  15      -0.1146444104122
  16    -0.043403574539504
  17      0.23461575089174
  18     -0.18969852652992
  19     -0.19189242176599
  20      0.15174716496999
  21     0.015588426142412
  22    -0.054508343056644
  23    -0.086907198747589
  24     0.059665245753573
  25    -0.045249402979813
  26     0.007555117552061
  27    -0.023307632025022
  28      0.23673024613423
  29     -0.19079136381685
  30      0.14524717775625
  31      0.10405502702907
  32     0.091761880397961
  33     0.091744202771365
  34     0.063751013861475
  35     0.063740697181567
  36      -0.1065962832049
  37     -0.24389195705459
  38        0.287181755714
 Sym= A
 Ene=    -0.477756685
 Spin= Alpha
 Occup=    1.00000
   1    -4.1667308858022e-08
   2    1.1604726593272e-06
   3    0.0048982848224389
   4      0.28829392831489
   5      0.37068804877204
   6    1.6699370583037e-07
   7    -5.2173143981663e-07
   8    -0.0027487283645544
   9     -0.16178083396874
  10     -0.20799353437266
  11    3.8714546525809e-07
  12    -8.7768672945761e-07
  13    -0.0025517930505463
  14     -0.15072600885479
  15     -0.19385753459839
  16    -4.3547893776991e-06
  17    2.389968752087e-05
  18    -0.0022332203535478
  19     -0.12925963862238
  20     -0.16618287906921
  21    -3.1668289389063e-07
  22    2.3351932249992e-06
  23    -0.00056362563930701
  24    -0.032561521514214
  25    -0.041843332881782
  26    1.4291581599477e-06
  27    -4.4604812662328e-06
  28    -9.5456064704709e-05
  29    -0.0062851092383728
  30    -0.008103168010586
  31    1.066433488439e-05
  32     -0.36575565265623
  33      0.36575313348684
  34     -0.21745265439629
  35      0.21743677184223
  36    1.6297648636959e-05
  37    9.7604401250455e-06
  38    3.0757414561252e-06
 Sym= A
 Ene=   -0.4676583596
 Spin= Alpha
 Occup=    1.00000
   1     0.013721379684851
   2    -0.051585048924869
   3     -0.18264085323588
   4      0.22875745092526
   5     -0.17551544637026
   6     0.014441692298216
   7    -0.059219520780917
   8      0.20687336371258
   9     -0.12931105220704
  10     0.097843331655293
  11    -0.0033708253483687
  12     0.012899488451615
  13     -0.17393932134149
  14      0.19591143509302
  15     -0.15004417626457
  16    -0.0055057376173382
  17     0.030531760535626
  18     -0.29267756462568
  19      0.18522398926601
  20     -0.14016453872034
  21    -0.0040771323812851
  22     0.026480225299054
  23     0.060734714107361
  24     -0.22337817287145
  25      0.17291844151555
  26     0.014443935100002
  27    -0.049608618633996
  28    -0.021526038769668
  29      0.17800515005845
  30     -0.13814901654085
  31      0.29650551792991
  32    -0.051544944663076
  33    -0.051576403757592
  34    -0.0029523038670896
  35    -0.002969753221652
  36      0.29976840032138
  37      0.21848424048751
  38      -0.1384079261557
 Sym= A
 Ene=   -0.4545616656
 Spin= Alpha
 Occup=    1.00000
   1    -0.016348216146636
   2     0.066109904068076
   3      0.35410675674252
   4      0.10916546051337
   5     -0.08960481135812
   6    -0.011899111418289
   7     0.049766011233926
   8     -0.35294861415717
   9     -0.14426888311987
  10      0.11687346192225
  11    -0.0036307174069952
  12     0.022209430083409
  13      0.21653207982116
  14      0.16900811250708
  15     -0.13427601883095
  16    -0.043600402387792
  17      0.24258200511428
  18     -0.30071545794458
  19     -0.22661521862364
  20      0.18023414316821
  21     -0.01019355883509
  22     0.045203865762321
  23     -0.17067852257445
  24    0.0061456199755189
  25    -0.0025170499673925
  26    0.0053784698158703
  27    -0.013860702890944
  28      0.11588605198915
  29     0.040048651687336
  30     -0.03267726006267
  31      0.11843852161053
  32     -0.18113588953488
  33      -0.1811669452027
  34     -0.20924491057454
  35     -0.20925944738292
  36    0.0021968981040687
  37    0.0069979002074713
  38     0.083186330090468
 Sym= A
 Ene=   -0.4053713178
 Spin= Alpha
 Occup=    1.00000
   1    1.4257645716319e-07
   2    -3.1192806141742e-07
   3    0.00091554592581928
   4     0.054100378549196
   5     0.069570534675954
   6    5.3394873171477e-08
   7    1.7230327020782e-08
   8    -0.0025282497991305
   9      -0.1489929220616
  10     -0.19158762327054
  11    5.6327568171589e-07
  12    -2.3754157355642e-06
  13    0.0054169904665823
  14      0.31878322478757
  15      0.40991457670097
  16    2.9650961024383e-07
  17    -1.7819030137162e-06
  18    0.0064071164398374
  19      0.37664128756076
  20      0.48430316281298
  21    -1.8559034561869e-07
  22    4.4544101145086e-07
  23     0.001312801236388
  24     0.077077838350101
  25     0.099111719936604
  26    -3.9907082965368e-09
  27    9.240079701207e-08
  28    0.00017073893119088
  29     0.010137570399298
  30     0.013036996665738
  31    -3.2055006212117e-06
  32    -0.097168335592894
  33       0.0971747547045
  34     -0.23271667831918
  35      0.23272296282494
  36    1.7934337514242e-07
  37    -1.8571100402684e-07
  38    -1.2120135362547e-06
 Sym= A
 Ene=   -0.3148068131
 Spin= Alpha
 Occup=    1.00000
   1    0.0022397040787834
   2    -0.0098372789888027
   3    -0.066355466706191
   4     0.046687516496157
   5    -0.035432506835754
   6    -0.031219342239205
   7      0.13697420599075
   8     0.055757416490359
   9     -0.25962992229028
  10      0.20117636922457
  11    -0.0026097124967312
  12     0.013290469527421
  13      -0.1226286110557
  14      0.11164206772116
  15    -0.085201378124126
  16    -0.00060303539419271
  17    0.0036228016832764
  18      0.59073498562728
  19     -0.47702290616905
  20      0.36316679610236
  21     0.041720149512111
  22     -0.18262350635189
  23      0.28141119550022
  24    -0.091716399706126
  25     0.067605598557322
  26    -0.011734723347137
  27     0.041385647961921
  28     -0.10020662835549
  29    0.00093048516588912
  30    0.0006017121042171
  31     0.076705782678848
  32    -0.019732302703843
  33    -0.019732961129502
  34    -0.070260508454983
  35    -0.070261675096038
  36     0.099058522247455
  37     0.056465657306833
  38     -0.10811761477335
 Sym= A
 Ene=    0.1134352538
 Spin= Alpha
 Occup=    1.00000
   1    -4.4548726646605e-08
   2    2.1465921178527e-07
   3    -3.4123763066453e-05
   4    -0.0020194684572961
   5    -0.002596648539999
   6    7.0914609512304e-08
   7    -3.5805289095852e-07
   8    0.00012964111229164
   9    0.0076340009990953
  10    0.0098154904176242
  11    -4.3842241364308e-07
  12     2.04824357637e-06
  13    -0.0012311768722886
  14    -0.072544356370114
  15     -0.09328102842049
  16    1.5788954586396e-08
  17    -4.2740194425722e-08
  18    0.0030155968388729
  19      0.17742687182969
  20      0.22814491821706
  21    1.2891568284405e-06
  22    -6.7473879533619e-06
  23    -0.007583249188787
  24     -0.44599857366738
  25     -0.57349345514774
  26    1.3608140839145e-06