[Molden Format]
made by pyscf v[2.12.1]
[Atoms] (AU)
C   1   6    -3.67285279844341     1.45125297188223    -1.08007296649516
C   2   6    -0.85428848913213     0.99836120886897    -0.76511231331390
C   3   6    -0.29562875492696    -1.22688578911262     0.95805335063200
O   4   8    -1.96427582017915    -2.49417392276844     1.96567421751133
C   5   6     2.38402178696755    -1.93077097599061     1.47003684956041
C   6   6     4.40909009657396    -0.74835044258901     0.52368090363947
H   7   1    -4.00731542523018     3.06437988359470    -2.33016459241744
H   8   1    -4.60501690116886    -0.20514866808278    -1.89841886473806
H   9   1    -4.57011365964815     1.84824663613086     0.74192537376549
H   10   1     0.01296352121452     2.69590218656576     0.04074249524562
H   11   1    -0.02224207648613     0.62445999786252    -2.62282647732883
H   12   1     2.60714175049494    -3.54321758629825     2.72105444128372
H   13   1     4.28357448738035     0.86679847607675    -0.73073819510806
H   14   1     6.29494228258366    -1.40085397614008     1.00620357228591
[GTO]
1 0
 s    3 1.00
             71.616837    0.15432897000916
             13.045096    0.53532814003178
             3.5305122     0.4446345400264
 s    3 1.00
             2.9412494  -0.099967230075964
             0.6834831    0.39951283030359
             0.2222899    0.70011547053201
 p    3 1.00
             2.9412494    0.15591627210511
             0.6834831    0.60768372820466
             0.2222899    0.39195739529202

2 0
 s    3 1.00
             71.616837    0.15432897000916
             13.045096    0.53532814003178
             3.5305122     0.4446345400264
 s    3 1.00
             2.9412494  -0.099967230075964
             0.6834831    0.39951283030359
             0.2222899    0.70011547053201
 p    3 1.00
             2.9412494    0.15591627210511
             0.6834831    0.60768372820466
             0.2222899    0.39195739529202

3 0
 s    3 1.00
             71.616837    0.15432897000916
             13.045096    0.53532814003178
             3.5305122     0.4446345400264
 s    3 1.00
             2.9412494  -0.099967230075964
             0.6834831    0.39951283030359
             0.2222899    0.70011547053201
 p    3 1.00
             2.9412494    0.15591627210511
             0.6834831    0.60768372820466
             0.2222899    0.39195739529202

4 0
 s    3 1.00
             130.70932    0.15432896872316
             23.808861    0.53532813557095
             6.4436083    0.44463453632131
 s    3 1.00
             5.0331513  -0.099967228656673
             1.1695961    0.39951282463148
              0.380389    0.70011546059208
 p    3 1.00
             5.0331513    0.15591626847816
             1.1695961    0.60768371406861
              0.380389    0.39195738617424

5 0
 s    3 1.00
             71.616837    0.15432897000916
             13.045096    0.53532814003178
             3.5305122     0.4446345400264
 s    3 1.00
             2.9412494  -0.099967230075964
             0.6834831    0.39951283030359
             0.2222899    0.70011547053201
 p    3 1.00
             2.9412494    0.15591627210511
             0.6834831    0.60768372820466
             0.2222899    0.39195739529202

6 0
 s    3 1.00
             71.616837    0.15432897000916
             13.045096    0.53532814003178
             3.5305122     0.4446345400264
 s    3 1.00
             2.9412494  -0.099967230075964
             0.6834831    0.39951283030359
             0.2222899    0.70011547053201
 p    3 1.00
             2.9412494    0.15591627210511
             0.6834831    0.60768372820466
             0.2222899    0.39195739529202

7 0
 s    3 1.00
            3.42525091    0.15432897070298
            0.62391373    0.53532814243847
             0.1688554    0.44463454202535

8 0
 s    3 1.00
            3.42525091    0.15432897070298
            0.62391373    0.53532814243847
             0.1688554    0.44463454202535

9 0
 s    3 1.00
            3.42525091    0.15432897070298
            0.62391373    0.53532814243847
             0.1688554    0.44463454202535

10 0
 s    3 1.00
            3.42525091    0.15432897070298
            0.62391373    0.53532814243847
             0.1688554    0.44463454202535

11 0
 s    3 1.00
            3.42525091    0.15432897070298
            0.62391373    0.53532814243847
             0.1688554    0.44463454202535

12 0
 s    3 1.00
            3.42525091    0.15432897070298
            0.62391373    0.53532814243847
             0.1688554    0.44463454202535

13 0
 s    3 1.00
            3.42525091    0.15432897070298
            0.62391373    0.53532814243847
             0.1688554    0.44463454202535

14 0
 s    3 1.00
            3.42525091    0.15432897070298
            0.62391373    0.53532814243847
             0.1688554    0.44463454202535

[5d]
[7f]
[9g]

[MO]
 Sym= A
 Ene=    -20.26798071
 Spin= Alpha
 Occup=    1.00000
   1    3.6861933505233e-06
   2    -3.4565866204041e-05
   3    -0.00011669440069428
   4    4.2235194120577e-05
   5    -3.1306364514554e-05
   6    -2.1873045770962e-05
   7    0.00023500060198284
   8    -0.00042900418708676
   9    -0.00017936302382258
  10    0.00014516070709063
  11    0.00055699585070057
  12    -0.0071181293922009
  13    0.0044654809082372
  14     0.003457440676951
  15    -0.0027478624054455
  16      0.99428252627983
  17     0.025848232159525
  18    0.0039437770223316
  19    0.0030050967903883
  20    -0.0023891802622771
  21    -2.490755352911e-05
  22    0.00040166443058476
  23    -0.00032644966093501
  24    -0.00028768160632222
  25    0.00022804261973245
  26    5.5868102917677e-06
  27    3.2148764666869e-05
  28    3.2348329518301e-05
  29    -4.8062935121397e-05
  30    3.6951510776113e-05
  31    -2.1629437106064e-05
  32    -8.5380093487032e-05
  33    -8.5375540834311e-05
  34    3.2179559038804e-05
  35    3.2178745478783e-05
  36    -0.00024437887346583
  37    -1.2301704949808e-05
  38    -1.9901579230913e-05
 Sym= A
 Ene=    -11.11507338
 Spin= Alpha
 Occup=    1.00000
   1    -0.00046116048920811
   2    0.00018991650751426
   3    -2.4882912753417e-05
   4    0.00020500472447107
   5    -0.00015910294211252
   6    -0.0019187947496243
   7    -0.0054316429873288
   8    -0.00058042329909836
   9    0.0031783673931722
  10    -0.0024641136695367
  11      0.99251212671646
  12     0.033141952506482
  13    -7.124341957617e-05
  14    -0.0005662917523502
  15    0.00044135659183675
  16    0.00018683137414174
  17    -0.0058762914910476
  18    -0.0013384824313094
  19    -0.00099883620670144
  20    0.00079448163561253
  21    -0.0010083591848974
  22    -0.0059956352387899
  23    0.0041147705309626
  24    -0.00094295863685085
  25    0.00067893915815262
  26    -0.0001426800650112
  27    0.00012243506323382
  28    -5.4732200589367e-05
  29    8.3731347037631e-05
  30    -6.4392243785334e-05
  31    -0.00015223730922078
  32    -0.00016059624638133
  33    -0.00016058984745241
  34    -0.00015257808596219
  35    -0.00015258490510724
  36    -8.4297892558917e-06
  37    -0.00011218135938381
  38    -3.0930412488149e-05
 Sym= A
 Ene=    -11.05779507
 Spin= Alpha
 Occup=    1.00000
   1    -0.0074211435972616
   2    -0.0061473572470648
   3    -0.0042325454018417
   4    0.00069711207628936
   5    -0.00048620311537014
   6      0.99186281761464
   7     0.037782788271775
   8    0.0001180903408752
   9    -3.4053434614699e-05
  10    2.4929723249172e-05
  11    0.0028879745341393
  12    -0.0059155344751083
  13    0.00097375040058027
  14    -0.0033795580136269
  15    0.0026153675034971
  16    -1.8661150973652e-05
  17    0.0002302889026177
  18    -3.6915660706538e-05
  19    0.00017239190347194
  20    -0.00013357873546307
  21    -0.00070817951503439
  22    0.00014714511500054
  23    2.3740626554723e-05
  24    4.1823059619321e-05
  25    -3.2839744793504e-05
  26    -0.00047295398638142
  27    -3.7464905384969e-05
  28    0.00014838160639955
  29    -9.4490114576564e-06
  30    5.3844192356896e-06
  31    0.00013357693958843
  32    9.8118964782134e-05
  33    9.8113909605495e-05
  34    -0.0069860926551214
  35    -0.006986055264639
  36    -5.9719100718205e-05
  37    -7.6071285071883e-05
  38    -4.7049997048592e-05
 Sym= A
 Ene=    -11.04092739
 Spin= Alpha
 Occup=    1.00000
   1      0.99192254534133
   2     0.037681357671096
   3    -0.00016507265992696
   4    6.1230998266972e-05
   5    -4.5463505976945e-05
   6    0.0084079112735784
   7    -0.0055122984523363
   8    0.0042276499967334
   9    -0.00068092200204897
  10    0.00047368012565791
  11    0.00055191504124372
  12    5.6273312647007e-05
  13    0.00017214686544151
  14    1.7151711183688e-05
  15    -1.5615282922125e-05
  16    6.4866031326453e-06
  17    2.9289987196858e-05
  18    7.1875899271549e-05
  19    -4.2283181834423e-05
  20    3.1932636563442e-05
  21    -0.00072956547590097
  22    -0.00010516732535887
  23    5.193332218835e-05
  24    -4.8661530151925e-05
  25    3.7156999688385e-05
  26    -0.0002341859658259
  27    7.2663381877517e-06
  28    1.9272563530482e-05
  29    -4.4615514410477e-06
  30    3.2148583068368e-06
  31    -0.0069346138288804
  32    -0.0069058386089461
  33    -0.0069057537157928
  34    -8.1344253895193e-06
  35    -8.1395728171264e-06
  36    -7.3710478683219e-06
  37    -3.7121121667257e-05
  38    -8.0417346367127e-06
 Sym= A
 Ene=    -11.03237315
 Spin= Alpha
 Occup=    1.00000
   1    0.00076683704402599
   2    -6.1563449685159e-05
   3    -5.3946386699911e-05
   4    4.3887190605767e-05
   5    -3.3418113508435e-05
   6    0.00079158615550965
   7    0.0002374338403249
   8    -5.9838838743089e-05
   9    -1.6495455685325e-06
  10    2.0740615703165e-06
  11    0.0020086020176829
  12    -0.0060075041279722
  13    -0.0039776649551247
  14    0.0010096379859393
  15    -0.00073259870655359
  16    -1.4246289872872e-05
  17    0.00027830088197272
  18    0.00017086187517092
  19    2.7532649778408e-05
  20    -2.3661647488214e-05
  21      0.98405296916445
  22     0.034855686887226
  23    0.00048208486028052
  24    0.00035870242815405
  25    -0.00028547439257071
  26       0.1275247189124
  27    -0.0031146904651881
  28    0.0035415974549848
  29    0.0020140104071549
  30    -0.0016131616348879
  31    -1.1452410357424e-05
  32    -1.6483448616404e-06
  33    -1.6485931798422e-06
  34    -0.00011298474534521
  35    -0.00011298556470913
  36     -0.00682522447422
  37    -0.00076970490214576
  38    -0.00077680846123533
 Sym= A
 Ene=     -11.0296344
 Spin= Alpha
 Occup=    1.00000
   1    0.00013924703907481
   2    -2.3838316546707e-05
   3    -2.3718876586372e-05
   4    -4.4206851084352e-06
   5    3.7513828277234e-06
   6    0.00039877976929853
   7    -1.8163354110081e-05
   8    -9.4717260944032e-05
   9    5.5232753371598e-05
  10    -4.1704552817081e-05
  11    -9.366487452328e-05
  12    0.0010290551672316
  13    0.00055507590806605
  14    -0.00020667455392969
  15    0.00015339334187851
  16    1.3799428084477e-05
  17    -0.0001366813567845
  18    -7.695562271308e-05
  19    -1.7321976733291e-05
  20    1.4476579827778e-05
  21     -0.12690120109849
  22    -0.012378045085097
  23    -0.0037349085373308
  24    -0.0022284252290702
  25    0.0017825048220293
  26      0.98403640782527
  27     0.036725258764181
  28    -0.0016337970557469
  29    -0.0010405119905183
  30    0.00083094852837639
  31    2.5944269970219e-06
  32    -3.7090580640887e-07
  33    -3.7042437970826e-07
  34    -4.6488075467746e-07
  35    -4.6873706696775e-07
  36    0.0009928081788174
  37    -0.0067368487728849
  38    -0.0067780903830775
 Sym= A
 Ene=    -1.315590299
 Spin= Alpha
 Occup=    1.00000
   1    -0.0075854236203766
   2     0.018189952275915
   3    0.0062379705696976
   4    -0.003976886581566
   5    0.0030103288211617
   6    -0.022746167681116
   7     0.057249992701094
   8     0.002637152703499
   9    -0.022311550297441
  10     0.017316602311649
  11     -0.12724523878188
  12      0.29531168460809
  13      -0.1069998194138
  14     -0.08350228745611
  15     0.066353680328119
  16     -0.21396088024468
  17      0.74909710841356
  18      0.11806627464574
  19     0.089089783309831
  20    -0.070845296304838
  21      -0.0237499658785
  22     0.056055558958143
  23    -0.029126846433778
  24    0.0061117960299179
  25    -0.0043682685509851
  26    -0.0048849685271556
  27     0.012165862867549
  28    -0.005754610185447
  29    -0.0026759851363095
  30    0.0021571355565289
  31    0.0015532432459268
  32    0.0044209066464067
  33    0.0044208002043861
  34    0.0063358360171646
  35    0.0063358033492164
  36     0.010458543783031
  37    0.0020315000199625
  38    0.0012685436276966
 Sym= A
 Ene=    -1.023609039
 Spin= Alpha
 Occup=    1.00000
   1    -0.090477250743519
   2      0.24356202727354
   3      0.04994352955692
   4    -0.0069773747909911
   5     0.004765817425911
   6     -0.13430991706662
   7      0.36715091937381
   8    -0.011367799666292
   9    -0.015699406625291
  10     0.012359553766343
  11    -0.067244264969011
  12      0.18758496968096
  13     0.096018321341077
  14     0.083617622931241
  15    -0.066298065522845
  16     0.062893708238543
  17     -0.24251143579249
  18    -0.0015654926270917
  19    0.0059666782515546
  20    -0.0046194822146608
  21     -0.11960867424333
  22      0.31351487488723
  23     0.023775545456926
  24     0.045999173809133
  25    -0.036088949415311
  26     -0.10234630612586
  27      0.26790412673444
  28    -0.065270325645208
  29    -0.028894504710939
  30     0.023335110797577
  31     0.054315175048156
  32     0.052547749828091
  33     0.052546923004694
  34     0.089964558076453
  35     0.089964064463076
  36     0.063821578996007
  37     0.066122598141722
  38     0.057100451441133
 Sym= A
 Ene=   -0.9891225214
 Spin= Alpha
 Occup=    1.00000
   1      0.11896079251601
   2     -0.32651313010374
   3    -0.046907902537352
   4    0.0070880449251734
   5    -0.0048918379473672
   6      0.11150777602257
   7      -0.3076862200146
   8     0.059908659268912
   9    -0.013972170284747
  10     0.010074041790211
  11    -0.0075957355142811
  12     0.024824106569542
  13     0.092160785128721
  14    -0.065622786298747
  15     0.049815811566739
  16    5.8443921377024e-05
  17    -0.0011608004811384
  18     0.027493355698679
  19    -0.020195727679315
  20     0.015342610417649
  21     -0.13201537662552
  22      0.34984134411756
  23     0.060707678412507
  24      0.03430670536175
  25    -0.027484300268839
  26     -0.12567370881999
  27      0.33360395144453
  28    -0.065448613391327
  29    -0.040764946264335
  30      0.03256936952293
  31    -0.078548737434429
  32    -0.077570166119686
  33    -0.077568906771618
  34    -0.072560405416628
  35    -0.072559809958958
  36     0.086908670219336
  37     0.078309983099416
  38     0.081061826653487
 Sym= A
 Ene=   -0.8494110133
 Spin= Alpha
 Occup=    1.00000
   1     -0.14618187936564
   2      0.43288046132592
   3    -0.079473169264667
   4     0.019232653034491
   5    -0.013908081925895
   6      0.08773602394668
   7     -0.26486012311924
   8      -0.1468834699311
   9     0.067551326436921
  10    -0.050593159543843
  11     0.096941785331727
  12     -0.29183510858868
  13    -0.070701085480233
  14    -0.093687182558878
  15     0.073794110991749
  16    -0.048491225904513
  17      0.20311434076608
  18     -0.04456216983601
  19    -0.031205968003408
  20     0.024857482310831
  21    -0.0012892870255554
  22    -0.00053892455246456
  23      0.14444719551349
  24    -0.0042335636361366
  25    0.0013828989806187
  26    -0.088175194940308
  27       0.2505254439333
  28     0.023708928061857
  29    -0.017455218829464
  30     0.013263041249389
  31      0.15242562142449
  32      0.14522861626342
  33      0.14522579335941
  34    -0.095135519523002
  35    -0.095134718113836
  36     0.013343279603196
  37     0.070113321015786
  38      0.10190706244987
 Sym= A
 Ene=   -0.7825440597
 Spin= Alpha
 Occup=    1.00000
   1     0.064867996064723
   2     -0.19928112418602
   3     0.085901789411341
   4    -0.015723452465028
   5     0.011093792289611
   6     -0.07081730563926
   7      0.21764272575742
   8     0.054639739733248
   9     0.024549956273949
  10    -0.019813617138407
  11     0.058849436842196
  12     -0.18412409498372
  13     -0.18407229004775
  14      0.09046839606408
  15    -0.067922542761466
  16      -0.0448084267455
  17      0.19560949445274
  18     -0.11365389451523
  19     0.018718383577563
  20    -0.013054692421241
  21      0.10650920274057
  22     -0.32213000461338
  23      0.17777760357605
  24     0.077540619890104
  25    -0.062650150778294
  26     -0.12097179554931
  27      0.35965499739538
  28      0.10010624703915
  29     0.062866826524003
  30    -0.050211365664469
  31     -0.08411362516171
  32    -0.080677901666528
  33    -0.080676003368141
  34     0.096246771402137
  35     0.096245539584729
  36     -0.16012335726604
  37      0.18360498386749
  38      0.16890026926058
 Sym= A
 Ene=   -0.6680990951
 Spin= Alpha
 Occup=    1.00000
   1    -0.023897244384632
   2     0.079707995700228
   3     -0.13533278991882
   4    -0.062786926154096
   5     0.050612824687367
   6     0.063844341275409
   7     -0.20872856950502
   8    -0.021934667747078
   9     -0.21533892750578
  10      0.16775167374876
  11     -0.11451998389486
  12      0.38487165326103
  13    -0.0076872613256713
  14     0.074920576987098
  15    -0.058164185989953
  16     0.061994500762289
  17     -0.28830825062379
  18     0.084551063423685
  19      0.15187069419222
  20     -0.11922710062687
  21     0.060392590333968
  22     -0.18630676800352
  23     -0.14633780359514
  24      0.15887526201472
  25     -0.12161875711419
  26    -0.033752938947261
  27      0.11263536969841
  28     0.036612549770539
  29      0.14747834375163
  30     -0.11517565030787
  31    -0.013004100137785
  32     0.092012882300818
  33     0.092006868720659
  34     -0.16415496966228
  35     -0.16414845664507
  36     -0.23214310453361
  37      0.16861855276525
  38     0.020323251102286
 Sym= A
 Ene=   -0.6148406519
 Spin= Alpha
 Occup=    1.00000
   1    -0.0093148720627189
   2      0.02816092006939
   3    -0.042951743471536
   4      0.16180904359436
   5     -0.12525673269218
   6     0.010046664984195
   7    -0.032755922507959
   8      0.12895086993938
   9      0.18175921500218
  10     -0.14304039514575
  11     0.014771586638024
  12    -0.054933045805823
  13      0.25929778093126
  14     -0.15656879861468
  15       0.1183405570452
  16       -0.024686173885
  17      0.11988110931271
  18        0.122875600337
  19     -0.20065443583111
  20       0.1544272308677
  21     0.015962303583814
  22    -0.051913633186626
  23     -0.22182076437599
  24      0.10958850462571
  25    -0.082291261759018
  26    -0.0054125220089516
  27     0.026687085597446
  28    -0.064636713728729
  29      0.22560540465835
  30     -0.17459693145307
  31       0.1735333041467
  32    -0.037317660860981
  33    -0.037303195879084
  34      0.11039996960164
  35      0.11038242368647
  36     -0.13869292626774
  37      0.23955828258671
  38     -0.11979040675557
 Sym= A
 Ene=   -0.5995285459
 Spin= Alpha
 Occup=    1.00000
   1    -1.3781919684004e-07
   2    1.0730773138787e-06
   3    0.0033587028259756
   4      0.19752493286998
   5      0.25399197598792
   6    4.4234239379818e-07
   7    -1.7643953906479e-06
   8    0.0045971960770755
   9      0.27082132485029
  10      0.34825132751789
  11    -2.833986369513e-06
  12    9.8956722487436e-06
  13    0.0017969330000726
  14       0.1062850592582
  15      0.13666337082716
  16    2.9398033697048e-06
  17    -1.453614733249e-05
  18    0.0012947312530691
  19     0.075918460722142
  20     0.097597225871355
  21    6.2888563023027e-07
  22    -1.8419064965287e-06
  23    0.00017216225055486
  24    0.0099743800575478
  25     0.012836261117515
  26    -4.3280152424593e-07
  27    1.5619398238671e-06
  28    -4.1191081347783e-05
  29    -0.0030152197859729
  30    -0.0038648174324328
  31    -1.4430945405558e-06
  32      -0.2068234718862
  33      0.20682574761485
  34      0.29147257507513
  35     -0.29148462024658
  36    3.8939551594405e-06
  37    -6.3159881429738e-06
  38    1.0219763492929e-05
 Sym= A
 Ene=   -0.5831016627
 Spin= Alpha
 Occup=    1.00000
   1    0.0012133497964342
   2    -0.004293790138393
   3     0.065619285877135
   4     0.056683135551846
   5    -0.044956777542044
   6    -0.0079070763482979
   7     0.031485184388892
   8    -0.040111843138171
   9     0.056976266438283
  10    -0.043791974382211
  11    -0.045242171869695
  12      0.15106296692508
  13    -0.033617527569001
  14     -0.15463664987269
  15      0.12069948922603
  16     0.060856608044748
  17     -0.30605447402046
  18      0.32397841060666
  19     0.067279920029267
  20    -0.056609612954018
  21     0.040300363548673
  22     -0.11981085655139
  23     -0.18175318043611
  24     -0.22556527740534
  25      0.17782436164312
  26    -0.0097605338562063
  27       0.0522505522844
  28      0.42861645682111
  29     0.039307873958035
  30    -0.036236830370744
  31     0.046747831566532
  32    -0.051713376121426
  33    -0.051719906135676
  34     0.019570336627569
  35     0.019582996517408
  36       0.1487083678143
  37     0.044699502752659
  38      0.32489580892467
 Sym= A
 Ene=   -0.5181326397
 Spin= Alpha
 Occup=    1.00000
   1    0.0015148087946638
   2    -0.0044981633017776
   3      0.10265237934557
   4      0.30280375021111
   5     -0.23683275804608
   6     0.013216969164471
   7    -0.047297273485428
   8     -0.04383792239806
   9      0.03838939547207
  10    -0.029290040966201
  11    -0.037970319463557
  12      0.13745052281709
  13     -0.17177574492477
  14    -0.063948234588881
  15     0.051994232862651
  16     0.041628496879216
  17     -0.22488658181008
  18      0.19116407893509
  19      0.22630448188534
  20     -0.17852925935715
  21    0.0037599711470622
  22    -0.025274320712561
  23      0.16701956538063
  24      0.17074082848778
  25     -0.13499317237455
  26    -0.015258686646365
  27     0.039767385991612
  28     -0.13620617283324
  29     -0.17375935359011
  30      0.13693356010269
  31      0.33384232553115
  32      -0.1793032123003
  33     -0.17928479632476
  34    -0.025262948571783
  35    -0.025245846144113
  36     -0.19639025718982
  37      -0.1805376381854
  38    -0.012860354566139
 Sym= A
 Ene=   -0.5029383955
 Spin= Alpha
 Occup=    1.00000
   1    0.0063150556193883
   2    -0.027010377540166
   3     -0.29212548899531
   4      0.11124284026368
   5    -0.082659600043306
   6     0.012351767697658
   7     -0.04994882634589
   8      0.31330162470245
   9    -0.087443255661538
  10     0.063866683416934
  11    -0.023479588066194
  12     0.091967855892781
  13      0.19918793423293
  14      0.14566884555512
  15     -0.11591423498611
  16    -0.037390519420039
  17      0.20366238253214
  18      -0.1746413197184
  19     -0.16824193311633
  20      0.13315291721266
  21     0.017885756957559
  22    -0.062950951996484
  23    -0.076415578627333
  24      0.07090408901187
  25    -0.054129751792713
  26    0.0057595050080279
  27    -0.017819008151811
  28      0.24106290484176
  29     -0.20800062392829
  30      0.15857281893274
  31      0.16101021942593
  32     0.057888048466964
  33     0.057878092777152
  34     0.048320092235948
  35     0.048315060784279
  36     -0.12326773767044
  37       -0.264955890143
  38      0.30122338292976
 Sym= A
 Ene=   -0.4795463838
 Spin= Alpha
 Occup=    1.00000
   1    -2.7367944194929e-07
   2    2.1256013134059e-06
   3    0.0049032539339578
   4       0.2881456589572
   5      0.37049169781164
   6    7.1685820850105e-08
   7    -7.7813445014746e-08
   8    -0.0027884884203084
   9     -0.16367983292166
  10     -0.21043303036454
  11    4.0282946512438e-08
  12    4.3759784487625e-07
  13    -0.0025466565881976
  14     -0.15038391233204
  15     -0.19341879102895
  16    -4.059327824663e-06
  17    2.2484307269991e-05
  18    -0.0022901460824404
  19     -0.13249332817872
  20      -0.1703432098462
  21    -5.0032202538748e-07
  22    3.2903658192001e-06
  23    -0.00032546500645677
  24    -0.018439581236861
  25    -0.023680340879553
  26    1.5800849059067e-06
  27    -4.7954340944567e-06
  28    0.00010504737421399
  29    0.0054805591616511
  30    0.0070190649350021
  31    1.3353008009901e-05
  32     -0.36588836550326
  33      0.36587767006262
  34     -0.21823410532754
  35       0.2182114772177
  36    1.8721428857122e-05
  37    1.3214084733247e-05
  38    1.636256527824e-06
 Sym= A
 Ene=   -0.4706074955
 Spin= Alpha
 Occup=    1.00000
   1    -0.012691934499082
   2     0.047601094955442
   3      0.16335579832184
   4      -0.2242112878853
   5      0.17223891783922
   6     -0.01419069037181
   7      0.05836155221306
   8     -0.18725063509966
   9      0.12179454348634
  10    -0.092259517908663
  11    0.0023464633561216
  12    -0.0084642388169913
  13      0.16192732044368
  14     -0.19088650176558
  15       0.1462928715121
  16    0.0061276330501818
  17    -0.034298528622689
  18      0.30903072348753
  19     -0.18509778951025
  20      0.13984777541583
  21    0.0060942903191181
  22    -0.035432230849816
  23    -0.035284355043821
  24      0.23333008781394
  25     -0.18099370171068
  26    -0.016346166597437
  27     0.054204161709764
  28    0.0077945323889471
  29     -0.19044029229965
  30      0.14800237987112
  31     -0.28868248628599
  32     0.055471929560817
  33     0.055508409081905
  34     0.006675144731519
  35    0.0066954992403003
  36     -0.31172844698287
  37     -0.22966150089713
  38      0.13506029037717
 Sym= A
 Ene=   -0.4593586252
 Spin= Alpha
 Occup=    1.00000
   1     0.017125745394109
   2    -0.069152042764958
   3      -0.3770836096556
   4     -0.10893199622382
   5      0.08973281984659
   6     0.011875515353502
   7     -0.05021067223244
   8       0.3778615323825
   9      0.13696357220851
  10     -0.11152510460377
  11    0.0073184837378239
  12    -0.036101860356937
  13     -0.20603531343254
  14     -0.15043642281065
  15      0.11969172854448
  16     0.037756130035325
  17     -0.21154265725154
  18      0.26653005996265
  19      0.21653123751576
  20     -0.17194248239222
  21    0.0086330087995376
  22    -0.039207831248413
  23       0.1671977588145
  24    -0.011301316738171
  25      0.00657466286762
  26    -0.0044625329196674
  27    0.0098128353482611
  28      -0.1109235070542
  29    -0.038651315337401
  30     0.031526967221333
  31      -0.1150634821715
  32       0.1893349483554
  33      0.18937321438648
  34      0.21391030696664
  35        0.213929450009
  36    0.0091731730447094
  37    -0.0060648113126071
  38    -0.079393550273118
 Sym= A
 Ene=    -0.407927446
 Spin= Alpha
 Occup=    1.00000
   1    1.3195206049578e-07
   2    -2.7389901062748e-07
   3    0.00089779160479668
   4     0.053048642029775
   5     0.068217958927842
   6    1.7731032825529e-08
   7    1.6481080739493e-07
   8    -0.0025094065555518
   9     -0.14787714510149
  10      -0.1901521948309
  11    5.7077861172216e-07
  12    -2.4143682689032e-06
  13    0.0054282087332956
  14      0.31942549229357
  15      0.41073978005361
  16    2.1929318208951e-07
  17    -1.3487048842641e-06
  18    0.0065831109440929
  19      0.38699450085882
  20      0.49761716765386
  21    -9.9022827050058e-08
  22    5.1353201216871e-08
  23    0.00076395025291236
  24     0.044802195038321
  25       0.0576099129585
  26    -4.6791396175154e-08
  27    3.0020732249509e-07
  28    -0.00024332036929069
  29    -0.014210788357295
  30    -0.018271178402884
  31    -3.0624743562635e-06
  32    -0.095739445283664
  33      0.09574563195472
  34     -0.23116279235544
  35      0.23116868714671
  36    2.9479153159642e-07
  37    -3.9298996018564e-07
  38    -1.2264195486282e-06
 Sym= A
 Ene=   -0.3244848572
 Spin= Alpha
 Occup=    1.00000
   1    0.0027308937416416
   2    -0.011790491955673
   3    -0.070632790509409
   4     0.050671919281944
   5    -0.038474672390538
   6    -0.030485773293612
   7      0.13300724783147
   8     0.058822294234087
   9     -0.26166317987512
  10      0.20271724547707
  11    -0.0019721646056073
  12     0.010331790543205
  13     -0.13656304449725
  14      0.12097084590383
  15     -0.09227251329975
  16    -0.000562520777939
  17    0.0034014837624703
  18      0.58388385983635
  19     -0.46961925407571
  20      0.35749881967497
  21      0.04016392687845
  22     -0.17510735107504
  23      0.28529730613781
  24    -0.094206939284126
  25     0.069491717799089
  26    -0.011626200804014
  27     0.039025458052256
  28     -0.10281828592479
  29    0.0038161949104494
  30    -0.0016070805244184
  31     0.081914175500194
  32    -0.020244857236864
  33    -0.020245617225876
  34    -0.070394220276438
  35     -0.07039563947167
  36      0.10902980562526
  37     0.060068159640526
  38     -0.11062042060697
 Sym= A
 Ene=   -0.3131854193
 Spin= Alpha
 Occup=    0.93890
   1    3.4105177941804e-09
   2    -1.8146531390874e-08
   3    3.9215995298714e-05
   4    0.0023040028335428
   5    0.0029626787710204
   6    7.323004113846e-10
   7    3.0606246058308e-08
   8    -0.00025769976214984
   9    -0.015164229543848
  10    -0.019499304215864
  11    6.4719792148157e-08
  12    -3.7116298176252e-07
  13    4.3956369467852e-05
  14    0.0025957405908348
  15     0.003337876668749
  16    2.316601429665e-08
  17    -8.4777939488908e-08
  18    -0.0016268285037296
  19    -0.095679003805154
  20     -0.12302972343132
  21    -1.740458044224e-06
  22    7.123712133387e-06
  23    0.0065190391254726
  24      0.38332684969742
  25      0.49290407841577
  26    1.6915624748679e-06