[Molden Format]
[Title]
[Atoms] AU
C      1     6 -0.36728527985510E+01  0.14512529719248E+01 -0.10800729665268E+01
C      2     6 -0.85428848915716E+00  0.99836120889822E+00 -0.76511231333632E+00
C      3     6 -0.29562875493562E+00 -0.12268857891486E+01  0.95805335066007E+00
O      4     8 -0.19642758202367E+01 -0.24941739228415E+01  0.19656742175689E+01
C      5     6  0.23840217870374E+01 -0.19307709760472E+01  0.14700368496035E+01
C      6     6  0.44090900967032E+01 -0.74835044261094E+00  0.52368090365482E+00
H      7     1 -0.40073154253476E+01  0.30643798836845E+01 -0.23301645924857E+01
H      8     1 -0.46050169013038E+01 -0.20514866808880E+00 -0.18984188647937E+01
H      9     1 -0.45701136597821E+01  0.18482466361850E+01  0.74192537378723E+00
H     10     1  0.12963521214896E-01  0.26959021866448E+01  0.40742495246817E-01
H     11     1 -0.22242076486783E-01  0.62445999788082E+00 -0.26228264774057E+01
H     12     1  0.26071417505713E+01 -0.35432175864021E+01  0.27210544413635E+01
H     13     1  0.42835744875059E+01  0.86679847610215E+00 -0.73073819512948E+00
H     14     1  0.62949422827681E+01 -0.14008539761811E+01  0.10062035723154E+01
[GTO]
           1 0
 s           4   1.0000000000000000     
   51.049363095579913      -0.16312063210127389     
   8.7911227406887544      -0.19911024581000730     
  0.70640422258929825       0.31882047753655751     
  0.26922813413411617       0.12706504184240380     
 p           4   1.0000000000000000     
   5.8263656140800002       0.73716451545209605     
   1.5106896018720002       0.68216371614850257     
  0.53256483288000001       0.35783053929253711     
  0.21202323690600003        5.3983030275847881E-002

           2 0
 s           4   1.0000000000000000     
   51.049363095579913      -0.16312063210127389     
   8.7911227406887544      -0.19911024581000730     
  0.70640422258929825       0.31882047753655751     
  0.26922813413411617       0.12706504184240380     
 p           4   1.0000000000000000     
   5.8263656140800002       0.73716451545209605     
   1.5106896018720002       0.68216371614850257     
  0.53256483288000001       0.35783053929253711     
  0.21202323690600003        5.3983030275847881E-002

           3 0
 s           4   1.0000000000000000     
   51.049363095579913      -0.16312063210127389     
   8.7911227406887544      -0.19911024581000730     
  0.70640422258929825       0.31882047753655751     
  0.26922813413411617       0.12706504184240380     
 p           4   1.0000000000000000     
   5.8263656140800002       0.73716451545209605     
   1.5106896018720002       0.68216371614850257     
  0.53256483288000001       0.35783053929253711     
  0.21202323690600003        5.3983030275847881E-002

           4 0
 s           4   1.0000000000000000     
   69.137961906196551      -0.20478756370077797     
   11.906129132707308      -0.24997023136827334     
  0.95670827744340703       0.40025880240639616     
  0.36462520496073686       0.15952206667693555     
 p           4   1.0000000000000000     
   8.2124193257781641        1.1321556799186829     
   2.1293576997098116        1.0476840782254817     
  0.75066448202360914       0.54956508217158984     
  0.29885246543283073        8.2908486592766617E-002

           5 0
 s           4   1.0000000000000000     
   51.049363095579913      -0.16312063210127389     
   8.7911227406887544      -0.19911024581000730     
  0.70640422258929825       0.31882047753655751     
  0.26922813413411617       0.12706504184240380     
 p           4   1.0000000000000000     
   5.8263656140800002       0.73716451545209605     
   1.5106896018720002       0.68216371614850257     
  0.53256483288000001       0.35783053929253711     
  0.21202323690600003        5.3983030275847881E-002

           6 0
 s           4   1.0000000000000000     
   51.049363095579913      -0.16312063210127389     
   8.7911227406887544      -0.19911024581000730     
  0.70640422258929825       0.31882047753655751     
  0.26922813413411617       0.12706504184240380     
 p           4   1.0000000000000000     
   5.8263656140800002       0.73716451545209605     
   1.5106896018720002       0.68216371614850257     
  0.53256483288000001       0.35783053929253711     
  0.21202323690600003        5.3983030275847881E-002

           7 0
 s           3   1.0000000000000000     
   3.3702276975336001       0.27359110588908298     
  0.61389118221497996       0.26460540653860526     
  0.16614291148415999        8.2465947534082318E-002

           8 0
 s           3   1.0000000000000000     
   3.3702276975336001       0.27359110588908298     
  0.61389118221497996       0.26460540653860526     
  0.16614291148415999        8.2465947534082318E-002

           9 0
 s           3   1.0000000000000000     
   3.3702276975336001       0.27359110588908298     
  0.61389118221497996       0.26460540653860526     
  0.16614291148415999        8.2465947534082318E-002

          10 0
 s           3   1.0000000000000000     
   3.3702276975336001       0.27359110588908298     
  0.61389118221497996       0.26460540653860526     
  0.16614291148415999        8.2465947534082318E-002

          11 0
 s           3   1.0000000000000000     
   3.3702276975336001       0.27359110588908298     
  0.61389118221497996       0.26460540653860526     
  0.16614291148415999        8.2465947534082318E-002

          12 0
 s           3   1.0000000000000000     
   3.3702276975336001       0.27359110588908298     
  0.61389118221497996       0.26460540653860526     
  0.16614291148415999        8.2465947534082318E-002

          13 0
 s           3   1.0000000000000000     
   3.3702276975336001       0.27359110588908298     
  0.61389118221497996       0.26460540653860526     
  0.16614291148415999        8.2465947534082318E-002

          14 0
 s           3   1.0000000000000000     
   3.3702276975336001       0.27359110588908298     
  0.61389118221497996       0.26460540653860526     
  0.16614291148415999        8.2465947534082318E-002

[MO]
Sym=     1a
Ene=  -0.70092524514779631     
Spin= Alpha
Occup=     2.00000000
           1   1.5236777755847973E-002
           2   1.2325221228219998E-002
           3  -9.8166974505777584E-003
           4   7.4714596146051807E-003
           5   6.1109326731390343E-002
           6  -4.3683450167341011E-003
           7  -4.6666792086401815E-002
           8   3.6350042367754153E-002
           9  0.38181143636485360     
          10 -0.14736630449894025     
          11 -0.11723104832099232     
          12   9.3117977862369430E-002
          13  0.61866915284471702     
          14  0.15348054043842829     
          15  0.11365577467915416     
          16  -9.0418497227825606E-002
          17   7.1372962300922785E-002
          18  -6.5088854910329619E-002
          19   4.6635398061382963E-003
          20  -2.7664081119598725E-003
          21   4.3711725933976335E-003
          22  -1.1244249220764743E-002
          23  -2.2384794710902972E-003
          24   1.8895412536739707E-003
          25   3.6326424048351643E-004
          26   1.8412622746377053E-003
          27   1.8411881670313392E-003
          28   7.7630267201220567E-003
          29   7.7630446584859127E-003
          30   1.0905273067745188E-002
          31   1.4179117338402425E-003
          32  -1.5849000683691342E-004
Sym=     2a
Ene=  -0.64584459771898861     
Spin= Alpha
Occup=     2.00000000
           1   5.4839149332596600E-002
           2   4.0804363595769458E-002
           3  -7.0344089897676244E-003
           4   4.9312439707072820E-003
           5  0.21517098340079666     
           6   4.3569414451719107E-002
           7  -4.5212329269690668E-002
           8   3.4585022765296985E-002
           9  0.24195916027259598     
          10  0.18618149855169294     
          11   8.3116137580144855E-002
          12  -6.7100156117898685E-002
          13 -0.26701459379214060     
          14   7.0923177092318740E-002
          15   3.1320350100352806E-002
          16  -2.5295158449481596E-002
          17  0.41456159333650278     
          18   1.5198702220765166E-002
          19   8.8662428590294357E-002
          20  -6.9154384679832231E-002
          21  0.31495814350081675     
          22 -0.12123385643980414     
          23  -4.7163532672313803E-002
          24   3.8282845051754839E-002
          25   1.1425383837753815E-002
          26   1.1009210544940008E-002
          27   1.1009098479436525E-002
          28   7.2030114703652365E-002
          29   7.2030141262324113E-002
          30   8.6517551601156525E-002
          31   8.3473043332416300E-002
          32   6.5927475300158508E-002
Sym=     3a
Ene=  -0.63268658754475426     
Spin= Alpha
Occup=     2.00000000
           1  0.24962847062015875     
           2  0.11414942537236383     
           3  -2.1360770439000847E-002
           4   1.5103424301278560E-002
           5  0.43053785558309304     
           6  -5.8272427914596310E-002
           7  -2.3564573604299036E-002
           8   1.9096017487713883E-002
           9  0.10131485912836324     
          10 -0.10727097362559165     
          11  0.17569084478019620     
          12 -0.13521484967632916     
          13 -0.13127332267398523     
          14  -4.8011102819271782E-002
          15   9.1404212106495478E-002
          16  -7.0449413166219194E-002
          17 -0.24073335318581676     
          18  -5.8659514748190866E-002
          19  -4.6162986931972735E-003
          20   4.3665647844376380E-003
          21 -0.20588264675484358     
          22   5.1385453214413783E-002
          23   4.4836818093507355E-002
          24  -3.5549409967489023E-002
          25   6.2979891368936017E-002
          26   6.2441991492299502E-002
          27   6.2441302051719043E-002
          28  0.13022400196723544     
          29  0.13022343927646632     
          30  -7.6732657674118881E-002
          31  -4.0016188620475152E-002
          32  -5.7892887861684131E-002
Sym=     4a
Ene=  -0.60278696760763395     
Spin= Alpha
Occup=     2.00000000
           1 -0.24231026391515226     
           2  -2.7948957727153625E-002
           3  -8.6085760001860159E-003
           4   7.0642945155382020E-003
           5  -4.6783826586396376E-002
           6  0.12520836949794492     
           7  -8.6916568005426881E-002
           8   6.5939377858649478E-002
           9  0.28402028071025393     
          10  0.17344033465746705     
          11   1.5025577035496440E-003
          12  -3.4606983678429955E-003
          13 -0.33240085233149563     
          14  0.20597568688672932     
          15   5.8462640959625868E-002
          16  -4.8188454909547387E-002
          17   3.4606337026775867E-002
          18 -0.26920499985708801     
          19  -2.3313768678738963E-002
          20   2.1691020627479431E-002
          21 -0.37057893741023962     
          22  -3.9323358941117222E-002
          23   2.1718618599580134E-002
          24  -1.6371459646569407E-002
          25  -9.2124031738680973E-002
          26  -7.8049877544227139E-002
          27  -7.8049018388368183E-002
          28  -1.6654654130440684E-002
          29  -1.6654512408223136E-002
          30   1.2845965542335282E-002
          31 -0.12556435649813272     
          32 -0.16155919891699005     
Sym=     5a
Ene=  -0.58190938538356629     
Spin= Alpha
Occup=     2.00000000
           1 -0.40425167594790790     
           2   4.8820944998406827E-002
           3  -4.5304828816204394E-002
           4   3.4588220902100113E-002
           5  0.10444312460166470     
           6  0.17134670534705451     
           7  -9.2897225376474005E-002
           8   6.9980806918120378E-002
           9   3.6283518839009883E-002
          10 -0.14724238445031301     
          11  0.15984894662085586     
          12 -0.12236601847330984     
          13   6.2215615943779445E-002
          14 -0.12842342351208896     
          15   8.4008757545028789E-002
          16  -6.3634652199774946E-002
          17 -0.20811032635336202     
          18   9.5943854199600484E-002
          19   9.1723774632061078E-002
          20  -7.2600857137883737E-002
          21  0.18969272092667627     
          22   6.1605974312235884E-002
          23   6.8055717124975296E-002
          24  -5.3740560948091126E-002
          25 -0.19511537662165185     
          26 -0.15136320737345985     
          27 -0.15136168842672182     
          28   5.6913692073781053E-002
          29   5.6913565741885476E-002
          30 -0.13646321775489972     
          31  0.13335850063331803     
          32   9.1022401962414706E-002
Sym=     6a
Ene=  -0.55712688075225392     
Spin= Alpha
Occup=     2.00000000
           1  0.14250698566477907     
           2 -0.12657057248905590     
           3  -5.5908734947879478E-002
           4   4.5150994868173200E-002
           5 -0.23611560875726376     
           6 -0.12770702070475762     
           7 -0.18682949781263378     
           8  0.14698103690386399     
           9  0.19899341280053742     
          10 -0.14416581609995521     
          11   3.9966012382015199E-002
          12  -2.9177240542793803E-002
          13 -0.36748629591182874     
          14  0.15554097190058844     
          15  0.28810305790600238     
          16 -0.22611335282156533     
          17 -0.13298572062049344     
          18   3.6749842383945793E-003
          19   5.5876996334119619E-002
          20  -4.3503979260568905E-002
          21  0.14557228697156871     
          22   9.2524929624883442E-002
          23   5.3413789154279322E-002
          24  -4.2762990555390477E-002
          25   3.0051313177421234E-002
          26  0.10904241968881653     
          27  0.10903944987188888     
          28 -0.20595120268632364     
          29 -0.20594764644435792     
          30  -9.9811973868471529E-002
          31   8.8336644448998469E-002
          32  0.10388891552050038     
Sym=     7a
Ene=  -0.53855245703774024     
Spin= Alpha
Occup=     2.00000000
           1  -5.1472581204643083E-006
           2  -1.6600023036961230E-003
           3  -9.7923786889406492E-002
           4 -0.12590256682473105     
           5   3.4159013207326466E-006
           6  -3.4986691285941963E-003
           7 -0.20557973941469029     
           8 -0.26433150302015546     
           9  -2.5727556361803136E-006
          10  -4.8211811734424556E-003
          11 -0.28291260243334393     
          12 -0.36380336145234932     
          13   1.0700792408977671E-006
          14  -4.6683973042484497E-003
          15 -0.27382264805150763     
          16 -0.35211281383030812     
          17   1.0533370847450815E-005
          18  -1.7176810421534472E-003
          19 -0.10192429903654004     
          20 -0.13104248733924850     
          21  -7.7591838125909803E-006
          22  -7.5371544992446180E-004
          23  -4.4048360827534064E-002
          24  -5.6604460648458213E-002
          25  -8.4808323583526834E-006
          26   8.9404521403129530E-002
          27  -8.9407903801634978E-002
          28 -0.19689300982222802     
          29  0.19688707758135288     
          30   1.3155468748010176E-005
          31  -1.9111322379275331E-005
          32  -1.8331616696418139E-006
Sym=     8a
Ene=  -0.53757931414760363     
Spin= Alpha
Occup=     2.00000000
           1   7.3978933986805134E-002
           2  -6.4303786134093918E-002
           3   9.4271601752955472E-002
           4  -7.2476572898459879E-002
           5  -4.9338373891340340E-002
           6   8.8697737159213225E-002
           7  0.11375429945972788     
           8  -8.9664724516462083E-002
           9   3.1936886507633815E-002
          10  0.20813798156236532     
          11 -0.12697340863642517     
          12   9.5958463826044740E-002
          13   3.5364481062511409E-002
          14  0.16809894688895838     
          15 -0.16390576259548684     
          16  0.12521069935917681     
          17 -0.17270437600443098     
          18 -0.24641198475078452     
          19  0.15165985189000411     
          20 -0.11469832344815169     
          21  0.10551709403036234     
          22   3.5026266548648648E-002
          23  0.28183764356394531     
          24 -0.21965186004457363     
          25  0.12110407264698726     
          26   1.9112150163013555E-002
          27   1.9101667667000433E-002
          28   6.2112079411708064E-002
          29   6.2136800510946916E-002
          30 -0.21307116876894813     
          31  0.30670180938573677     
          32  -1.5318154493830251E-002
Sym=     9a
Ene=  -0.52565786058118591     
Spin= Alpha
Occup=     2.00000000
           1   6.2983013847164690E-002
           2 -0.14352598013183346     
           3  -6.0102881503916974E-002
           4   4.8637973756099941E-002
           5  -9.5295864818070841E-002
           6   3.6181184735129712E-002
           7 -0.15949577771572937     
           8  0.12356141858263057     
           9   6.9643330988966830E-003
          10   8.6563194712158856E-002
          11  0.17818039824159021     
          12 -0.13970825801333883     
          13  0.27745390385964852     
          14 -0.38531725489588953     
          15  -9.0859652980866748E-002
          16   7.5761030216784639E-002
          17   9.3699372624954591E-002
          18   1.5232742084285720E-002
          19  0.21032975396748427     
          20 -0.16377104008755913     
          21  -7.3218511417250609E-002
          22 -0.33444296147300173     
          23   3.0364614873868576E-002
          24  -1.9190355419612191E-002
          25  -6.4997091935564393E-003
          26   9.5731126146821777E-002
          27   9.5729178259705866E-002
          28  -9.7059565837356226E-002
          29  -9.7059725952946929E-002
          30 -0.14295845035047297     
          31  -1.3959139379343314E-002
          32 -0.27813748831336471     
Sym=    10a
Ene=  -0.49508861143861571     
Spin= Alpha
Occup=     2.00000000
           1   1.0864459002877025E-006
           2  -3.5064439430473088E-003
           3 -0.20615326436389791     
           4 -0.26507450792684772     
           5   1.5895902645146045E-006
           6  -3.3761626312507572E-003
           7 -0.19879653202219907     
           8 -0.25561769041010085     
           9   1.0548982723729265E-006
          10   3.0580954743826510E-003
          11  0.17955614143048790     
          12  0.23087868116318599     
          13   4.7318279797148993E-006
          14   4.9078012127069517E-003
          15  0.28890635414563726     
          16  0.37150763001884690     
          17   1.3602653640951294E-007
          18   1.6224226803894781E-003
          19   9.5761760495926274E-002
          20  0.12314658275406730     
          21  -1.1445089641174787E-006
          22   8.4544444585992048E-004
          23   4.9043703530066207E-002
          24   6.3062860423832690E-002
          25  -4.0016927134075138E-006
          26  0.20349138961876409     
          27 -0.20348783924966513     
          28 -0.22656034261133073     
          29  0.22656158462295173     
          30   4.2286102872558067E-006
          31   5.8464635145816444E-008
          32   9.0289341328180295E-006
Sym=    11a
Ene=  -0.48898092426848905     
Spin= Alpha
Occup=     2.00000000
           1   2.8895657433547408E-002
           2 -0.18927484492657484     
           3 -0.11418999161746156     
           4   9.1316580145963694E-002
           5   2.0723256183324056E-002
           6  0.14012607630293358     
           7 -0.16749996631947583     
           8  0.12842345372419028     
           9   9.5515728775219577E-002
          10  0.21434451912798641     
          11  0.13937680531558513     
          12 -0.11123569737914414     
          13  0.18373476777294412     
          14 -0.21407465072348275     
          15 -0.24769551650583035     
          16  0.19544337248308877     
          17  -2.5856772013908690E-002
          18 -0.21625049452614109     
          19 -0.14231980699300181     
          20  0.11353575108295604     
          21  -3.0402474979669351E-002
          22  0.37865955047485023     
          23  -5.7892793763530855E-003
          24  -5.0869454840465997E-004
          25  -7.8090324631124156E-002
          26  0.12717467214833875     
          27  0.12718246034861236     
          28  -1.9277018231168973E-002
          29  -1.9290567230905737E-002
          30  0.12661070847578504     
          31  -2.0846289887287966E-002
          32  0.30308240863953539     
Sym=    12a
Ene=  -0.47620714708919354     
Spin= Alpha
Occup=     2.00000000
           1  -3.5940538786733263E-002
           2 -0.29723379446995551     
           3  0.28952824828165241     
           4 -0.22123709264785008     
           5  -8.3662585154555449E-002
           6  0.35810693520194720     
           7   7.3165847155544344E-003
           8  -1.0426846116489884E-002
           9   9.0096774098324076E-002
          10  -2.7610698147998141E-002
          11   5.0944564382048994E-002
          12  -3.9253581856051267E-002
          13   5.4424528457327100E-003
          14  -6.2001365424984613E-003
          15   9.5112196087259473E-002
          16  -7.3884606637462477E-002
          17  -6.2921406916717923E-002
          18   8.9669358949705472E-002
          19  0.10010530721257978     
          20  -7.9035347078780169E-002
          21  -5.3128471328161850E-003
          22   5.5806425188534091E-002
          23 -0.21189401672191863     
          24  0.16405246829100106     
          25  0.35232200209630093     
          26  -1.7084007982434184E-002
          27  -1.7083830398916956E-002
          28   8.9088135214866332E-002
          29   8.9091636707213345E-002
          30 -0.14767655431642310     
          31 -0.23893074742949144     
          32  0.13572491636657708     
Sym=    13a
Ene=  -0.46355688043887017     
Spin= Alpha
Occup=     2.00000000
           1  -4.8209885911172132E-002
           2 -0.28129594075220904     
           3   2.2723482025244931E-002
           4  -1.3957262440591353E-002
           5  -5.6957944650585318E-002
           6  0.27882162177395226     
           7   2.1001240990467181E-002
           8  -2.0015466058148561E-002
           9  -8.5599572837033511E-002
          10 -0.17987537399971223     
          11   2.1704795223946447E-002
          12  -1.4500915393806477E-002
          13  -5.3509855285663564E-002
          14 -0.12714156621047668     
          15  0.22191961062673524     
          16 -0.17090318775841745     
          17   5.3066591114867161E-002
          18   6.6675404720918846E-002
          19 -0.25623132403601107     
          20  0.19838502343073733     
          21  -4.7114651872702348E-002
          22  -8.8439778569168459E-002
          23  0.21828990812310189     
          24 -0.16859585911874300     
          25   4.9709539496732479E-002
          26   8.7805766339406066E-002
          27   8.7800946553428266E-002
          28  0.11318153913124097     
          29  0.11317876859975147     
          30  0.34377264621784837     
          31  0.29003287406702510     
          32 -0.21084215975669049     
Sym=    14a
Ene=  -0.45299205060651981     
Spin= Alpha
Occup=     2.00000000
           1  -8.1278929241509756E-003
           2 -0.24301033807349781     
           3 -0.30134838628702598     
           4  0.23753558391390744     
           5   1.0669363189664815E-002
           6  0.20316252419598141     
           7  0.13373093824083149     
           8 -0.10666118983953658     
           9  -9.5019092133931476E-002
          10  -3.9648517769941771E-002
          11 -0.14851386444873246     
          12  0.11602026244898912     
          13  -7.0199935671196756E-002
          14  0.29611524828080948     
          15  -2.1776138492833760E-002
          16   1.3001665419003869E-002
          17  -6.2977546292578304E-002
          18  0.12062324596671818     
          19   9.8520392987001229E-002
          20  -7.8210365255632006E-002
          21   2.2464983846039503E-002
          22  -6.9996314490631276E-002
          23 -0.11982288714015428     
          24   9.4115432467435700E-002
          25 -0.33587609420112080     
          26  0.23352699584353820     
          27  0.23348320257223917     
          28  0.17124072000604207     
          29  0.17120556404746021     
          30 -0.15358235356069530     
          31 -0.11937002007336626     
          32  -4.8643143253984948E-004
Sym=    15a
Ene=  -0.44590365150230948     
Spin= Alpha
Occup=     2.00000000
           1  -1.2107668282795550E-006
           2   4.5896211956749601E-003
           3  0.27094409881581744     
           4  0.34843307691853409     
           5   2.4183120340295143E-007
           6  -3.3250935146268792E-003
           7 -0.19638957163262050     
           8 -0.25254274074974853     
           9  -5.9674261901117594E-006
          10   2.0003808618573003E-004
          11   1.1934366931086180E-002
          12   1.5362104919241894E-002
          13  -3.5372527226707542E-006
          14   2.9770774510185141E-003
          15  0.17409454702228230     
          16  0.22386491155114011     
          17  -4.6328431926137795E-006
          18  -1.1984880460380988E-003
          19  -7.0923981115617846E-002
          20  -9.1205914865473178E-002
          21   1.6680614606272227E-006
          22  -1.3326294240922005E-003
          23  -7.8138861348321528E-002
          24 -0.10046245516326636     
          25  -2.0515242331488971E-005
          26 -0.34790166829515212     
          27  0.34793553167770808     
          28 -0.28171855116784505     
          29  0.28174012651036007     
          30  -6.4932375918059244E-006
          31  -5.7999884435316005E-006
          32  -7.4537734968151211E-007
Sym=    16a
Ene=  -0.43630979772136275     
Spin= Alpha
Occup=     2.00000000
           1  -4.7725898811631388E-007
           2   1.3532003531025953E-003
           3   7.9749402303104941E-002
           4  0.10255187021128004     
           5  -1.8649151045450451E-007
           6  -1.1216034433933872E-003
           7  -6.6104751878128643E-002
           8  -8.5003936196941396E-002
           9  -1.4693026707571251E-006
          10  -2.8565582923472809E-004
          11  -1.6739694962692678E-002
          12  -2.1522316548069957E-002
          13  -6.7988741809955627E-007
          14  -3.1036315577639257E-003
          15 -0.18261726214335575     
          16 -0.23482244622382642     
          17   4.1445288127688313E-006
          18   5.9807830397028703E-003
          19  0.35165061093171368     
          20  0.45217359608269769     
          21  -4.0979197145335887E-006
          22   6.3293452008700681E-003
          23  0.37222087340642140     
          24  0.47862002942542997     
          25  -3.3327279052716614E-006
          26 -0.10131535694467293     
          27  0.10132125723885341     
          28  -8.1646560123124060E-002
          29   8.1650185599553907E-002
          30   1.5960974485912350E-008
          31   1.4327736899181276E-006
          32  -5.1144937808439925E-008
Sym=    17a
Ene=  -0.39438823175317006     
Spin= Alpha
Occup=     2.00000000
           1   2.3645111735695790E-003
           2   6.2668608821368862E-002
           3  -6.2882575641562383E-002
           4   4.8076343476798698E-002
           5 -0.11783784408523719     
           6  -5.2339787794693032E-002
           7  0.26595154474161214     
           8 -0.20613775409267435     
           9  -5.4998654955353285E-003
          10  0.17073246420405164     
          11 -0.14177012232943290     
          12  0.10799589029476343     
          13  -1.6079619571874100E-003
          14 -0.55788398785750737     
          15  0.44910242513651716     
          16 -0.34188650424940020     
          17  0.15276101997479388     
          18 -0.29140541283660409     
          19   9.5590766420110371E-002
          20  -7.0488036382250041E-002
          21  -3.2678584145084073E-002
          22  0.10941623940028361     
          23  -1.6733018123724675E-002
          24   1.1563233523356420E-002
          25 -0.10723666467230979     
          26   2.9394093912515414E-002
          27   2.9395169723704279E-002
          28   6.4314303891716343E-002
          29   6.4315355473718014E-002
          30 -0.10979269981807688     
          31  -6.4958620439903428E-002
          32  0.14242463093865043     
Sym=    18a
Ene=  -0.28962058217461617     
Spin= Alpha
Occup=     0.00000000
           1  -5.0492680962171186E-008
           2   9.3429028100477650E-005
           3   5.4939452108875445E-003
           4   7.0644292116647332E-003
           5   2.5957039856656843E-007
           6  -4.9564608449386468E-004
           7  -2.9177068167543140E-002
           8  -3.7516498609347658E-002
           9  -1.6490526144125142E-006
          10   5.9778200223717963E-003
          11  0.35170580805669333     
          12  0.45224377066954852     
          13  -1.2191661563275619E-007
          14  -5.7604518211060276E-003
          15 -0.33890235393295004     
          16 -0.43577968722384824     
          17   2.4583200293512662E-006
          18   3.9536698346498205E-003
          19  0.23252511957323835     
          20  0.29899492003421030     
          21   4.1591209686385946E-006
          22  -6.5043957586331186E-003
          23 -0.38251931402693351     
          24 -0.49186323910299312     
          25   2.2604286099770706E-007
          26  -1.6369194440638248E-002
          27   1.6369329059211405E-002
          28 -0.12200577386895209     
          29  0.12200663070521660     
          30  -1.3384568300238657E-006
          31  -1.1944542970773954E-006
          32  -1.7245406625049473E-006
Sym=    19a
Ene=  -0.18284191972326200     
Spin= Alpha
Occup=     0.00000000