 Entering Gaussian System, Link 0=/software/sse/easybuild/prefix/software/Gaussian/16.B.01-avx2-nsc1-bdist/g16/g16.orig
 Input=freq-lm.wrap
 Output=freq-lm.log
 Initial command:
 /software/sse/easybuild/prefix/software/Gaussian/16.B.01-avx2-nsc1-bdist/g16/l1.exe "/scratch/local/Gau-438996.inp" -scrdir="/scratch/local/"
 Default is to use a total of  16 processors:
                               16 via shared-memory
                                1 via Linda
 Entering Link 1 = /software/sse/easybuild/prefix/software/Gaussian/16.B.01-avx2-nsc1-bdist/g16/l1.exe PID=    439002.
  
 Copyright (c) 1988-2017, Gaussian, Inc.  All Rights Reserved.
  
 This is part of the Gaussian(R) 16 program.  It is based on
 the Gaussian(R) 09 system (copyright 2009, Gaussian, Inc.),
 the Gaussian(R) 03 system (copyright 2003, Gaussian, Inc.),
 the Gaussian(R) 98 system (copyright 1998, Gaussian, Inc.),
 the Gaussian(R) 94 system (copyright 1995, Gaussian, Inc.),
 the Gaussian 92(TM) system (copyright 1992, Gaussian, Inc.),
 the Gaussian 90(TM) system (copyright 1990, Gaussian, Inc.),
 the Gaussian 88(TM) system (copyright 1988, Gaussian, Inc.),
 the Gaussian 86(TM) system (copyright 1986, Carnegie Mellon
 University), and the Gaussian 82(TM) system (copyright 1983,
 Carnegie Mellon University). Gaussian is a federally registered
 trademark of Gaussian, Inc.
  
 This software contains proprietary and confidential information,
 including trade secrets, belonging to Gaussian, Inc.
  
 This software is provided under written license and may be
 used, copied, transmitted, or stored only in accord with that
 written license.
  
 The following legend is applicable only to US Government
 contracts under FAR:
  
                    RESTRICTED RIGHTS LEGEND
  
 Use, reproduction and disclosure by the US Government is
 subject to restrictions as set forth in subparagraphs (a)
 and (c) of the Commercial Computer Software - Restricted
 Rights clause in FAR 52.227-19.
  
 Gaussian, Inc.
 340 Quinnipiac St., Bldg. 40, Wallingford CT 06492
  
  
 ---------------------------------------------------------------
 Warning -- This program may not be used in any manner that
 competes with the business of Gaussian, Inc. or will provide
 assistance to any competitor of Gaussian, Inc.  The licensee
 of this program is prohibited from giving any competitor of
 Gaussian, Inc. access to this program.  By using this program,
 the user acknowledges that Gaussian, Inc. is engaged in the
 business of creating and licensing software in the field of
 computational chemistry and represents and warrants to the
 licensee that it is not a competitor of Gaussian, Inc. and that
 it will not use this program in any manner prohibited above.
 ---------------------------------------------------------------
  

 Cite this work as:
 Gaussian 16, Revision B.01,
 M. J. Frisch, G. W. Trucks, H. B. Schlegel, G. E. Scuseria, 
 M. A. Robb, J. R. Cheeseman, G. Scalmani, V. Barone, 
 G. A. Petersson, H. Nakatsuji, X. Li, M. Caricato, A. V. Marenich, 
 J. Bloino, B. G. Janesko, R. Gomperts, B. Mennucci, H. P. Hratchian, 
 J. V. Ortiz, A. F. Izmaylov, J. L. Sonnenberg, D. Williams-Young, 
 F. Ding, F. Lipparini, F. Egidi, J. Goings, B. Peng, A. Petrone, 
 T. Henderson, D. Ranasinghe, V. G. Zakrzewski, J. Gao, N. Rega, 
 G. Zheng, W. Liang, M. Hada, M. Ehara, K. Toyota, R. Fukuda, 
 J. Hasegawa, M. Ishida, T. Nakajima, Y. Honda, O. Kitao, H. Nakai, 
 T. Vreven, K. Throssell, J. A. Montgomery, Jr., J. E. Peralta, 
 F. Ogliaro, M. J. Bearpark, J. J. Heyd, E. N. Brothers, K. N. Kudin, 
 V. N. Staroverov, T. A. Keith, R. Kobayashi, J. Normand, 
 K. Raghavachari, A. P. Rendell, J. C. Burant, S. S. Iyengar, 
 J. Tomasi, M. Cossi, J. M. Millam, M. Klene, C. Adamo, R. Cammi, 
 J. W. Ochterski, R. L. Martin, K. Morokuma, O. Farkas, 
 J. B. Foresman, and D. J. Fox, Gaussian, Inc., Wallingford CT, 2016.
 
 ******************************************
 Gaussian 16:  ES64L-G16RevB.01 20-Dec-2017
                10-Aug-2019 
 ******************************************
 %chk=freq.chk
 ----------------------------------------------------------------------
 # freq=(modredundant,intmodes) iop(1/33=3) b3lyp/6-31g(d,p) geom=conne
 ctivity iop(7/75=-1)
 ----------------------------------------------------------------------
 1/10=4,18=120,30=1,33=3,38=1,57=2/1,3;
 2/9=110,12=2,17=6,18=5,40=1/2;
 3/5=1,6=6,7=101,11=2,25=1,30=1,71=2,74=-5,140=1/1,2,3;
 4//1;
 5/5=2,38=5,98=1/2;
 8/6=4,10=90,11=11/1;
 11/6=1,8=1,9=11,15=111,16=1/1,2,10;
 10/6=1/2;
 6/7=2,8=2,9=2,10=2,28=1/1;
 7/8=21,10=1,25=1,75=-1/1,2,3,16;
 1/10=4,18=20,30=1,33=3/3;
 99//99;
 ONIOM results not found on unit 2.
 ----
 name
 ----
 TstMul:  ICh=     0
 TstMul:  Mul=     1
 TstMul:  ICh=     0
 TstMul:  Mul=     1
 Symbolic Z-matrix:
 Charge =  0 Multiplicity = 1
 C                    -2.20439  -2.94919   0. 
 C                    -0.8117   -3.06874   0. 
 C                    -0.07771  -1.85931   0. 
 C                    -2.13043  -0.74437   0. 
 H                    -2.61249   0.23066   0. 
 N                    -0.78352  -0.7045    0. 
 N                    -2.92239  -1.81535   0. 
 N                    -0.4159   -4.39531   0. 
 N                    -2.6604   -4.24847   0. 
 H                    -3.62831  -4.53283   0. 
 C                    -1.54451  -5.06184   0. 
 H                    -1.63233  -6.13993   0. 
 N                     1.26365  -1.81352   0. 
 H                     1.77704  -2.67974   0. 
 H                     1.75348  -0.9167    0. 
 H                     0.        0.91173   0. 
 C                    -0.40257   2.93615   0. 
 C                     1.84488   1.89269   0. 
 C                     2.45384   3.22582   0. 
 C                     1.62487   4.29551   0. 
 H                     1.99397   5.31585   0. 
 O                    -1.62044   2.84835   0. 
 O                     2.50771   0.84952   0. 
 N                     0.25475   4.16441   0. 
 N                     0.45676   1.85586   0. 
 C                     3.95103   3.32338   0. 
 H                     4.37441   2.82344   0.87729 
 H                     4.37441   2.82344  -0.87729 
 H                     4.28055   4.36594   0. 
 H                    -0.34952   4.9729    0. 
 
 RdStrC is calling ZToCFu for IStruc=1 NZ=    30.
                                ZToCFu                                
 ---------------------------------------------------------------------
 Center     Atomic      Atomic             Coordinates (Angstroms)
 Number     Number       Type             X           Y           Z
 ---------------------------------------------------------------------
      1          6           0       -2.204391   -2.949190    0.000000
      2          6           0       -0.811703   -3.068741    0.000000
      3          6           0       -0.077707   -1.859312    0.000000
      4          6           0       -2.130431   -0.744373    0.000000
      5          1           0       -2.612490    0.230658    0.000000
      6          7           0       -0.783522   -0.704501    0.000000
      7          7           0       -2.922387   -1.815352    0.000000
      8          7           0       -0.415897   -4.395311    0.000000
      9          7           0       -2.660395   -4.248472    0.000000
     10          1           0       -3.628305   -4.532825    0.000000
     11          6           0       -1.544510   -5.061845    0.000000
     12          1           0       -1.632327   -6.139929    0.000000
     13          7           0        1.263653   -1.813520    0.000000
     14          1           0        1.777037   -2.679735    0.000000
     15          1           0        1.753476   -0.916699    0.000000
     16          1           0        0.000000    0.911725    0.000000
     17          6           0       -0.402567    2.936148    0.000000
     18          6           0        1.844876    1.892690    0.000000
     19          6           0        2.453839    3.225824    0.000000
     20          6           0        1.624866    4.295506    0.000000
     21          1           0        1.993974    5.315853    0.000000
     22          8           0       -1.620436    2.848347    0.000000
     23          8           0        2.507710    0.849522    0.000000
     24          7           0        0.254754    4.164409    0.000000
     25          7           0        0.456764    1.855860    0.000000
     26          6           0        3.951028    3.323376    0.000000
     27          1           0        4.374411    2.823437    0.877291
     28          1           0        4.374411    2.823437   -0.877291
     29          1           0        4.280545    4.365942    0.000000
     30          1           0       -0.349522    4.972898    0.000000
 ---------------------------------------------------------------------
 Connectivity in DoCon:
 I=     1 IAn=  6 IBond, RBType=     2  1.50     7  1.50     9  1.50
 I=     2 IAn=  6 IBond, RBType=     1  1.50     3  1.50     8  1.00
 I=     3 IAn=  6 IBond, RBType=     2  1.50     6  1.50    13  1.50
 I=     4 IAn=  6 IBond, RBType=     5  1.00     6  1.50     7  1.50
 I=     5 IAn=  1 IBond, RBType=     4  1.00
 I=     6 IAn=  7 IBond, RBType=     3  1.50     4  1.50
 I=     7 IAn=  7 IBond, RBType=     1  1.50     4  1.50
 I=     8 IAn=  7 IBond, RBType=     2  1.00    11  2.00
 I=     9 IAn=  7 IBond, RBType=     1  1.50    10  1.00    11  1.50
 I=    10 IAn=  1 IBond, RBType=     9  1.00
 I=    11 IAn=  6 IBond, RBType=     8  2.00     9  1.50    12  1.00
 I=    12 IAn=  1 IBond, RBType=    11  1.00
 I=    13 IAn=  7 IBond, RBType=     3  1.50    14  1.00    15  1.00
 I=    14 IAn=  1 IBond, RBType=    13  1.00
 I=    15 IAn=  1 IBond, RBType=    13  1.00
 I=    16 IAn=  1 IBond, RBType=    25  1.00
 I=    17 IAn=  6 IBond, RBType=    22  2.00    24  1.00    25  1.50
 I=    18 IAn=  6 IBond, RBType=    19  1.00    23  2.00    25  1.00
 I=    19 IAn=  6 IBond, RBType=    18  1.00    20  2.00    26  1.00
 I=    20 IAn=  6 IBond, RBType=    19  2.00    21  1.00    24  1.50
 I=    21 IAn=  1 IBond, RBType=    20  1.00
 I=    22 IAn=  8 IBond, RBType=    17  2.00
 I=    23 IAn=  8 IBond, RBType=    18  2.00
 I=    24 IAn=  7 IBond, RBType=    17  1.00    20  1.50    30  1.00
 I=    25 IAn=  7 IBond, RBType=    16  1.00    17  1.50    18  1.00
 I=    26 IAn=  6 IBond, RBType=    19  1.00    27  1.00    28  1.00    29  1.00
 I=    27 IAn=  1 IBond, RBType=    26  1.00
 I=    28 IAn=  1 IBond, RBType=    26  1.00
 I=    29 IAn=  1 IBond, RBType=    26  1.00
 I=    30 IAn=  1 IBond, RBType=    24  1.00
 After GenITR:
 ITRead=  0  0  0  0  0  0  0  0  0  0  0  0  0  0  0  0  0  0  0  0
 ITRead=  0  0  0  0  0  0  0  0  0  0
 MicOpt= -1 -1 -1 -1 -1 -1 -1 -1 -1 -1 -1 -1 -1 -1 -1 -1 -1 -1 -1 -1
 MicOpt= -1 -1 -1 -1 -1 -1 -1 -1 -1 -1
 List IsCon N=     30 M=      2:
 I=      1 Vals=      2      1 |      7      1 |      9      1 |
 I=      2 Vals=      1      1 |      3      1 |      8      1 |
 I=      3 Vals=      2      1 |      6      1 |     13      1 |
 I=      4 Vals=      5      1 |      6      1 |      7      1 |
 I=      5 Vals=      4      1 |
 I=      6 Vals=      3      1 |      4      1 |
 I=      7 Vals=      1      1 |      4      1 |
 I=      8 Vals=      2      1 |     11      2 |
 I=      9 Vals=      1      1 |     10      1 |     11      1 |
 I=     10 Vals=      9      1 |
 I=     11 Vals=      8      2 |      9      1 |     12      1 |
 I=     12 Vals=     11      1 |
 I=     13 Vals=      3      1 |     14      1 |     15      1 |
 I=     14 Vals=     13      1 |
 I=     15 Vals=     13      1 |
 I=     16 Vals=     25      1 |
 I=     17 Vals=     22      2 |     24      1 |     25      1 |
 I=     18 Vals=     19      1 |     23      2 |     25      1 |
 I=     19 Vals=     18      1 |     20      2 |     26      1 |
 I=     20 Vals=     19      2 |     21      1 |     24      1 |
 I=     21 Vals=     20      1 |
 I=     22 Vals=     17      2 |
 I=     23 Vals=     18      2 |
 I=     24 Vals=     17      1 |     20      1 |     30      1 |
 I=     25 Vals=     16      1 |     17      1 |     18      1 |
 I=     26 Vals=     19      1 |     27      1 |     28      1 |     29      1 |
 I=     27 Vals=     26      1 |
 I=     28 Vals=     26      1 |
 I=     29 Vals=     26      1 |
 I=     30 Vals=     24      1 |
 Add virtual bond connecting atoms H16        and N6         Dist= 3.39D+00.
 Add virtual bond connecting atoms O23        and H15        Dist= 3.63D+00.
 The following ModRedundant input section has been read:
 B       5      22 B                                                           
 B       6      16 B                                                           
 B      15      23 B                                                           
 
 Coordinate R1 contains atom 1 which is already in QM block.
 Coordinate R1 contains atom 2 which is already in QM block.
 Coordinate R2 contains atom 1 which is already in QM block.
 Coordinate R2 contains atom 7 which is already in QM block.
 Coordinate R3 contains atom 1 which is already in QM block.
 Coordinate R3 contains atom 9 which is already in QM block.
 Coordinate R4 contains atom 2 which is already in QM block.
 Coordinate R4 contains atom 3 which is already in QM block.
 Coordinate R5 contains atom 2 which is already in QM block.
 Coordinate R5 contains atom 8 which is already in QM block.
 Coordinate R6 contains atom 3 which is already in QM block.
 Coordinate R6 contains atom 6 which is already in QM block.
 Coordinate R7 contains atom 3 which is already in QM block.
 Coordinate R7 contains atom 13 which is already in QM block.
 Coordinate R8 contains atom 4 which is already in QM block.
 Coordinate R8 contains atom 5 which is already in QM block.
 Coordinate R9 contains atom 4 which is already in QM block.
 Coordinate R9 contains atom 6 which is already in QM block.
 Coordinate R10 contains atom 4 which is already in QM block.
 Coordinate R10 contains atom 7 which is already in QM block.
 Coordinate R11 contains atom 5 which is already in QM block.
 Coordinate R11 contains atom 22 which is already in QM block.
 Coordinate R12 contains atom 6 which is already in QM block.
 Coordinate R12 contains atom 16 which is already in QM block.
 Coordinate R13 contains atom 8 which is already in QM block.
 Coordinate R13 contains atom 11 which is already in QM block.
 Coordinate R14 contains atom 9 which is already in QM block.
 Coordinate R14 contains atom 10 which is already in QM block.
 Coordinate R15 contains atom 9 which is already in QM block.
 Coordinate R15 contains atom 11 which is already in QM block.
 Coordinate R16 contains atom 11 which is already in QM block.
 Coordinate R16 contains atom 12 which is already in QM block.
 Coordinate R17 contains atom 13 which is already in QM block.
 Coordinate R17 contains atom 14 which is already in QM block.
 Coordinate R18 contains atom 13 which is already in QM block.
 Coordinate R18 contains atom 15 which is already in QM block.
 Coordinate R19 contains atom 15 which is already in QM block.
 Coordinate R19 contains atom 23 which is already in QM block.
 Coordinate R20 contains atom 16 which is already in QM block.
 Coordinate R20 contains atom 25 which is already in QM block.
 Coordinate R21 contains atom 17 which is already in QM block.
 Coordinate R21 contains atom 22 which is already in QM block.
 Coordinate R22 contains atom 17 which is already in QM block.
 Coordinate R22 contains atom 24 which is already in QM block.
 Coordinate R23 contains atom 17 which is already in QM block.
 Coordinate R23 contains atom 25 which is already in QM block.
 Coordinate R24 contains atom 18 which is already in QM block.
 Coordinate R24 contains atom 19 which is already in QM block.
 Coordinate R25 contains atom 18 which is already in QM block.
 Coordinate R25 contains atom 23 which is already in QM block.
 Coordinate R26 contains atom 18 which is already in QM block.
 Coordinate R26 contains atom 25 which is already in QM block.
 Coordinate R27 contains atom 19 which is already in QM block.
 Coordinate R27 contains atom 20 which is already in QM block.
 Coordinate R28 contains atom 19 which is already in QM block.
 Coordinate R28 contains atom 26 which is already in QM block.
 Coordinate R29 contains atom 20 which is already in QM block.
 Coordinate R29 contains atom 21 which is already in QM block.
 Coordinate R30 contains atom 20 which is already in QM block.
 Coordinate R30 contains atom 24 which is already in QM block.
 Coordinate R31 contains atom 24 which is already in QM block.
 Coordinate R31 contains atom 30 which is already in QM block.
 Coordinate R32 contains atom 26 which is already in QM block.
 Coordinate R32 contains atom 27 which is already in QM block.
 Coordinate R33 contains atom 26 which is already in QM block.
 Coordinate R33 contains atom 28 which is already in QM block.
 Coordinate R34 contains atom 26 which is already in QM block.
 Coordinate R34 contains atom 29 which is already in QM block.
 Coordinate A1 contains atom 2 which is already in QM block.
 Coordinate A1 contains atom 1 which is already in QM block.
 Coordinate A1 contains atom 1 which is already in QM block.
 Coordinate A2 contains atom 2 which is already in QM block.
 Coordinate A2 contains atom 1 which is already in QM block.
 Coordinate A2 contains atom 1 which is already in QM block.
 Coordinate A3 contains atom 7 which is already in QM block.
 Coordinate A3 contains atom 1 which is already in QM block.
 Coordinate A3 contains atom 1 which is already in QM block.
 Coordinate A4 contains atom 1 which is already in QM block.
 Coordinate A4 contains atom 2 which is already in QM block.
 Coordinate A4 contains atom 2 which is already in QM block.
 Coordinate A5 contains atom 1 which is already in QM block.
 Coordinate A5 contains atom 2 which is already in QM block.
 Coordinate A5 contains atom 2 which is already in QM block.
 Coordinate A6 contains atom 3 which is already in QM block.
 Coordinate A6 contains atom 2 which is already in QM block.
 Coordinate A6 contains atom 2 which is already in QM block.
 Coordinate A7 contains atom 2 which is already in QM block.
 Coordinate A7 contains atom 3 which is already in QM block.
 Coordinate A7 contains atom 3 which is already in QM block.
 Coordinate A8 contains atom 2 which is already in QM block.
 Coordinate A8 contains atom 3 which is already in QM block.
 Coordinate A8 contains atom 3 which is already in QM block.
 Coordinate A9 contains atom 6 which is already in QM block.
 Coordinate A9 contains atom 3 which is already in QM block.
 Coordinate A9 contains atom 3 which is already in QM block.
 Coordinate A10 contains atom 5 which is already in QM block.
 Coordinate A10 contains atom 4 which is already in QM block.
 Coordinate A10 contains atom 4 which is already in QM block.
 Coordinate A11 contains atom 5 which is already in QM block.
 Coordinate A11 contains atom 4 which is already in QM block.
 Coordinate A11 contains atom 4 which is already in QM block.
 Coordinate A12 contains atom 6 which is already in QM block.
 Coordinate A12 contains atom 4 which is already in QM block.
 Coordinate A12 contains atom 4 which is already in QM block.
 Coordinate A13 contains atom 4 which is already in QM block.
 Coordinate A13 contains atom 5 which is already in QM block.
 Coordinate A13 contains atom 5 which is already in QM block.
 Coordinate A14 contains atom 3 which is already in QM block.
 Coordinate A14 contains atom 6 which is already in QM block.
 Coordinate A14 contains atom 6 which is already in QM block.
 Coordinate A15 contains atom 3 which is already in QM block.
 Coordinate A15 contains atom 6 which is already in QM block.
 Coordinate A15 contains atom 6 which is already in QM block.
 Coordinate A16 contains atom 4 which is already in QM block.
 Coordinate A16 contains atom 6 which is already in QM block.
 Coordinate A16 contains atom 6 which is already in QM block.
 Coordinate A17 contains atom 1 which is already in QM block.
 Coordinate A17 contains atom 7 which is already in QM block.
 Coordinate A17 contains atom 7 which is already in QM block.
 Coordinate A18 contains atom 2 which is already in QM block.
 Coordinate A18 contains atom 8 which is already in QM block.
 Coordinate A18 contains atom 8 which is already in QM block.
 Coordinate A19 contains atom 1 which is already in QM block.
 Coordinate A19 contains atom 9 which is already in QM block.
 Coordinate A19 contains atom 9 which is already in QM block.
 Coordinate A20 contains atom 1 which is already in QM block.
 Coordinate A20 contains atom 9 which is already in QM block.
 Coordinate A20 contains atom 9 which is already in QM block.
 Coordinate A21 contains atom 10 which is already in QM block.
 Coordinate A21 contains atom 9 which is already in QM block.
 Coordinate A21 contains atom 9 which is already in QM block.
 Coordinate A22 contains atom 8 which is already in QM block.
 Coordinate A22 contains atom 11 which is already in QM block.
 Coordinate A22 contains atom 11 which is already in QM block.
 Coordinate A23 contains atom 8 which is already in QM block.
 Coordinate A23 contains atom 11 which is already in QM block.
 Coordinate A23 contains atom 11 which is already in QM block.
 Coordinate A24 contains atom 9 which is already in QM block.
 Coordinate A24 contains atom 11 which is already in QM block.
 Coordinate A24 contains atom 11 which is already in QM block.
 Coordinate A25 contains atom 3 which is already in QM block.
 Coordinate A25 contains atom 13 which is already in QM block.
 Coordinate A25 contains atom 13 which is already in QM block.
 Coordinate A26 contains atom 3 which is already in QM block.
 Coordinate A26 contains atom 13 which is already in QM block.
 Coordinate A26 contains atom 13 which is already in QM block.
 Coordinate A27 contains atom 14 which is already in QM block.
 Coordinate A27 contains atom 13 which is already in QM block.
 Coordinate A27 contains atom 13 which is already in QM block.
 Coordinate A28 contains atom 22 which is already in QM block.
 Coordinate A28 contains atom 17 which is already in QM block.
 Coordinate A28 contains atom 17 which is already in QM block.
 Coordinate A29 contains atom 22 which is already in QM block.
 Coordinate A29 contains atom 17 which is already in QM block.
 Coordinate A29 contains atom 17 which is already in QM block.
 Coordinate A30 contains atom 24 which is already in QM block.
 Coordinate A30 contains atom 17 which is already in QM block.
 Coordinate A30 contains atom 17 which is already in QM block.
 Coordinate A31 contains atom 19 which is already in QM block.
 Coordinate A31 contains atom 18 which is already in QM block.
 Coordinate A31 contains atom 18 which is already in QM block.
 Coordinate A32 contains atom 19 which is already in QM block.
 Coordinate A32 contains atom 18 which is already in QM block.
 Coordinate A32 contains atom 18 which is already in QM block.
 Coordinate A33 contains atom 23 which is already in QM block.
 Coordinate A33 contains atom 18 which is already in QM block.
 Coordinate A33 contains atom 18 which is already in QM block.
 Coordinate A34 contains atom 18 which is already in QM block.
 Coordinate A34 contains atom 19 which is already in QM block.
 Coordinate A34 contains atom 19 which is already in QM block.
 Coordinate A35 contains atom 18 which is already in QM block.
 Coordinate A35 contains atom 19 which is already in QM block.
 Coordinate A35 contains atom 19 which is already in QM block.
 Coordinate A36 contains atom 20 which is already in QM block.
 Coordinate A36 contains atom 19 which is already in QM block.
 Coordinate A36 contains atom 19 which is already in QM block.
 Coordinate A37 contains atom 19 which is already in QM block.
 Coordinate A37 contains atom 20 which is already in QM block.
 Coordinate A37 contains atom 20 which is already in QM block.
 Coordinate A38 contains atom 19 which is already in QM block.
 Coordinate A38 contains atom 20 which is already in QM block.
 Coordinate A38 contains atom 20 which is already in QM block.
 Coordinate A39 contains atom 21 which is already in QM block.
 Coordinate A39 contains atom 20 which is already in QM block.
 Coordinate A39 contains atom 20 which is already in QM block.
 Coordinate A40 contains atom 5 which is already in QM block.
 Coordinate A40 contains atom 22 which is already in QM block.
 Coordinate A40 contains atom 22 which is already in QM block.
 Coordinate A41 contains atom 15 which is already in QM block.
 Coordinate A41 contains atom 23 which is already in QM block.
 Coordinate A41 contains atom 23 which is already in QM block.
 Coordinate A42 contains atom 17 which is already in QM block.
 Coordinate A42 contains atom 24 which is already in QM block.
 Coordinate A42 contains atom 24 which is already in QM block.
 Coordinate A43 contains atom 17 which is already in QM block.
 Coordinate A43 contains atom 24 which is already in QM block.
 Coordinate A43 contains atom 24 which is already in QM block.
 Coordinate A44 contains atom 20 which is already in QM block.
 Coordinate A44 contains atom 24 which is already in QM block.
 Coordinate A44 contains atom 24 which is already in QM block.
 Coordinate A45 contains atom 16 which is already in QM block.
 Coordinate A45 contains atom 25 which is already in QM block.
 Coordinate A45 contains atom 25 which is already in QM block.
 Coordinate A46 contains atom 16 which is already in QM block.
 Coordinate A46 contains atom 25 which is already in QM block.
 Coordinate A46 contains atom 25 which is already in QM block.
 Coordinate A47 contains atom 17 which is already in QM block.
 Coordinate A47 contains atom 25 which is already in QM block.
 Coordinate A47 contains atom 25 which is already in QM block.
 Coordinate A48 contains atom 19 which is already in QM block.
 Coordinate A48 contains atom 26 which is already in QM block.
 Coordinate A48 contains atom 26 which is already in QM block.
 Coordinate A49 contains atom 19 which is already in QM block.
 Coordinate A49 contains atom 26 which is already in QM block.
 Coordinate A49 contains atom 26 which is already in QM block.
 Coordinate A50 contains atom 19 which is already in QM block.
 Coordinate A50 contains atom 26 which is already in QM block.
 Coordinate A50 contains atom 26 which is already in QM block.
 Coordinate A51 contains atom 27 which is already in QM block.
 Coordinate A51 contains atom 26 which is already in QM block.
 Coordinate A51 contains atom 26 which is already in QM block.
 Coordinate A52 contains atom 27 which is already in QM block.
 Coordinate A52 contains atom 26 which is already in QM block.
 Coordinate A52 contains atom 26 which is already in QM block.
 Coordinate A53 contains atom 28 which is already in QM block.
 Coordinate A53 contains atom 26 which is already in QM block.
 Coordinate A53 contains atom 26 which is already in QM block.
 Coordinate L54 contains atom 13 which is already in QM block.
 Coordinate L54 contains atom 15 which is already in QM block.
 Coordinate L54 contains atom 15 which is already in QM block.
 Coordinate L54 contains atom 5 which is already in QM block.
 Coordinate L55 contains atom 6 which is already in QM block.
 Coordinate L55 contains atom 16 which is already in QM block.
 Coordinate L55 contains atom 16 which is already in QM block.
 Coordinate L55 contains atom 15 which is already in QM block.
 Coordinate L56 contains atom 13 which is already in QM block.
 Coordinate L56 contains atom 15 which is already in QM block.
 Coordinate L56 contains atom 15 which is already in QM block.
 Coordinate L56 contains atom 5 which is already in QM block.
 Coordinate L57 contains atom 6 which is already in QM block.
 Coordinate L57 contains atom 16 which is already in QM block.
 Coordinate L57 contains atom 16 which is already in QM block.
 Coordinate L57 contains atom 15 which is already in QM block.
 Coordinate D1 contains atom 7 which is already in QM block.
 Coordinate D1 contains atom 1 which is already in QM block.
 Coordinate D1 contains atom 2 which is already in QM block.
 Coordinate D1 contains atom 3 which is already in QM block.
 Coordinate D2 contains atom 7 which is already in QM block.
 Coordinate D2 contains atom 1 which is already in QM block.
 Coordinate D2 contains atom 2 which is already in QM block.
 Coordinate D2 contains atom 8 which is already in QM block.
 Coordinate D3 contains atom 9 which is already in QM block.
 Coordinate D3 contains atom 1 which is already in QM block.
 Coordinate D3 contains atom 2 which is already in QM block.
 Coordinate D3 contains atom 3 which is already in QM block.
 Coordinate D4 contains atom 9 which is already in QM block.
 Coordinate D4 contains atom 1 which is already in QM block.
 Coordinate D4 contains atom 2 which is already in QM block.
 Coordinate D4 contains atom 8 which is already in QM block.
 Coordinate D5 contains atom 2 which is already in QM block.
 Coordinate D5 contains atom 1 which is already in QM block.
 Coordinate D5 contains atom 7 which is already in QM block.
 Coordinate D5 contains atom 4 which is already in QM block.
 Coordinate D6 contains atom 9 which is already in QM block.
 Coordinate D6 contains atom 1 which is already in QM block.
 Coordinate D6 contains atom 7 which is already in QM block.
 Coordinate D6 contains atom 4 which is already in QM block.
 Coordinate D7 contains atom 2 which is already in QM block.
 Coordinate D7 contains atom 1 which is already in QM block.
 Coordinate D7 contains atom 9 which is already in QM block.
 Coordinate D7 contains atom 10 which is already in QM block.
 Coordinate D8 contains atom 2 which is already in QM block.
 Coordinate D8 contains atom 1 which is already in QM block.
 Coordinate D8 contains atom 9 which is already in QM block.
 Coordinate D8 contains atom 11 which is already in QM block.
 Coordinate D9 contains atom 7 which is already in QM block.
 Coordinate D9 contains atom 1 which is already in QM block.
 Coordinate D9 contains atom 9 which is already in QM block.
 Coordinate D9 contains atom 10 which is already in QM block.
 Coordinate D10 contains atom 7 which is already in QM block.
 Coordinate D10 contains atom 1 which is already in QM block.
 Coordinate D10 contains atom 9 which is already in QM block.
 Coordinate D10 contains atom 11 which is already in QM block.
 Coordinate D11 contains atom 1 which is already in QM block.
 Coordinate D11 contains atom 2 which is already in QM block.
 Coordinate D11 contains atom 3 which is already in QM block.
 Coordinate D11 contains atom 6 which is already in QM block.
 Coordinate D12 contains atom 1 which is already in QM block.
 Coordinate D12 contains atom 2 which is already in QM block.
 Coordinate D12 contains atom 3 which is already in QM block.
 Coordinate D12 contains atom 13 which is already in QM block.
 Coordinate D13 contains atom 8 which is already in QM block.
 Coordinate D13 contains atom 2 which is already in QM block.
 Coordinate D13 contains atom 3 which is already in QM block.
 Coordinate D13 contains atom 6 which is already in QM block.
 Coordinate D14 contains atom 8 which is already in QM block.
 Coordinate D14 contains atom 2 which is already in QM block.
 Coordinate D14 contains atom 3 which is already in QM block.
 Coordinate D14 contains atom 13 which is already in QM block.
 Coordinate D15 contains atom 1 which is already in QM block.
 Coordinate D15 contains atom 2 which is already in QM block.
 Coordinate D15 contains atom 8 which is already in QM block.
 Coordinate D15 contains atom 11 which is already in QM block.
 Coordinate D16 contains atom 3 which is already in QM block.
 Coordinate D16 contains atom 2 which is already in QM block.
 Coordinate D16 contains atom 8 which is already in QM block.
 Coordinate D16 contains atom 11 which is already in QM block.
 Coordinate D17 contains atom 2 which is already in QM block.
 Coordinate D17 contains atom 3 which is already in QM block.
 Coordinate D17 contains atom 6 which is already in QM block.
 Coordinate D17 contains atom 4 which is already in QM block.
 Coordinate D18 contains atom 2 which is already in QM block.
 Coordinate D18 contains atom 3 which is already in QM block.
 Coordinate D18 contains atom 6 which is already in QM block.
 Coordinate D18 contains atom 16 which is already in QM block.
 Coordinate D19 contains atom 13 which is already in QM block.
 Coordinate D19 contains atom 3 which is already in QM block.
 Coordinate D19 contains atom 6 which is already in QM block.
 Coordinate D19 contains atom 4 which is already in QM block.
 Coordinate D20 contains atom 13 which is already in QM block.
 Coordinate D20 contains atom 3 which is already in QM block.
 Coordinate D20 contains atom 6 which is already in QM block.
 Coordinate D20 contains atom 16 which is already in QM block.
 Coordinate D21 contains atom 2 which is already in QM block.
 Coordinate D21 contains atom 3 which is already in QM block.
 Coordinate D21 contains atom 13 which is already in QM block.
 Coordinate D21 contains atom 14 which is already in QM block.
 Coordinate D22 contains atom 2 which is already in QM block.
 Coordinate D22 contains atom 3 which is already in QM block.
 Coordinate D22 contains atom 13 which is already in QM block.
 Coordinate D22 contains atom 15 which is already in QM block.
 Coordinate D23 contains atom 6 which is already in QM block.
 Coordinate D23 contains atom 3 which is already in QM block.
 Coordinate D23 contains atom 13 which is already in QM block.
 Coordinate D23 contains atom 14 which is already in QM block.
 Coordinate D24 contains atom 6 which is already in QM block.
 Coordinate D24 contains atom 3 which is already in QM block.
 Coordinate D24 contains atom 13 which is already in QM block.
 Coordinate D24 contains atom 15 which is already in QM block.
 Coordinate D25 contains atom 6 which is already in QM block.
 Coordinate D25 contains atom 4 which is already in QM block.
 Coordinate D25 contains atom 5 which is already in QM block.
 Coordinate D25 contains atom 22 which is already in QM block.
 Coordinate D26 contains atom 7 which is already in QM block.
 Coordinate D26 contains atom 4 which is already in QM block.
 Coordinate D26 contains atom 5 which is already in QM block.
 Coordinate D26 contains atom 22 which is already in QM block.
 Coordinate D27 contains atom 5 which is already in QM block.
 Coordinate D27 contains atom 4 which is already in QM block.
 Coordinate D27 contains atom 6 which is already in QM block.
 Coordinate D27 contains atom 3 which is already in QM block.
 Coordinate D28 contains atom 5 which is already in QM block.
 Coordinate D28 contains atom 4 which is already in QM block.
 Coordinate D28 contains atom 6 which is already in QM block.
 Coordinate D28 contains atom 16 which is already in QM block.
 Coordinate D29 contains atom 7 which is already in QM block.
 Coordinate D29 contains atom 4 which is already in QM block.
 Coordinate D29 contains atom 6 which is already in QM block.
 Coordinate D29 contains atom 3 which is already in QM block.
 Coordinate D30 contains atom 7 which is already in QM block.
 Coordinate D30 contains atom 4 which is already in QM block.
 Coordinate D30 contains atom 6 which is already in QM block.
 Coordinate D30 contains atom 16 which is already in QM block.
 Coordinate D31 contains atom 5 which is already in QM block.
 Coordinate D31 contains atom 4 which is already in QM block.
 Coordinate D31 contains atom 7 which is already in QM block.
 Coordinate D31 contains atom 1 which is already in QM block.
 Coordinate D32 contains atom 6 which is already in QM block.
 Coordinate D32 contains atom 4 which is already in QM block.
 Coordinate D32 contains atom 7 which is already in QM block.
 Coordinate D32 contains atom 1 which is already in QM block.
 Coordinate D33 contains atom 4 which is already in QM block.
 Coordinate D33 contains atom 5 which is already in QM block.
 Coordinate D33 contains atom 22 which is already in QM block.
 Coordinate D33 contains atom 17 which is already in QM block.
 Coordinate D34 contains atom 3 which is already in QM block.
 Coordinate D34 contains atom 6 which is already in QM block.
 Coordinate D34 contains atom 25 which is already in QM block.
 Coordinate D34 contains atom 17 which is already in QM block.
 Coordinate D35 contains atom 3 which is already in QM block.
 Coordinate D35 contains atom 6 which is already in QM block.
 Coordinate D35 contains atom 25 which is already in QM block.
 Coordinate D35 contains atom 18 which is already in QM block.
 Coordinate D36 contains atom 4 which is already in QM block.
 Coordinate D36 contains atom 6 which is already in QM block.
 Coordinate D36 contains atom 25 which is already in QM block.
 Coordinate D36 contains atom 17 which is already in QM block.
 Coordinate D37 contains atom 4 which is already in QM block.
 Coordinate D37 contains atom 6 which is already in QM block.
 Coordinate D37 contains atom 25 which is already in QM block.
 Coordinate D37 contains atom 18 which is already in QM block.
 Coordinate D38 contains atom 2 which is already in QM block.
 Coordinate D38 contains atom 8 which is already in QM block.
 Coordinate D38 contains atom 11 which is already in QM block.
 Coordinate D38 contains atom 9 which is already in QM block.
 Coordinate D39 contains atom 2 which is already in QM block.
 Coordinate D39 contains atom 8 which is already in QM block.
 Coordinate D39 contains atom 11 which is already in QM block.
 Coordinate D39 contains atom 12 which is already in QM block.
 Coordinate D40 contains atom 1 which is already in QM block.
 Coordinate D40 contains atom 9 which is already in QM block.
 Coordinate D40 contains atom 11 which is already in QM block.
 Coordinate D40 contains atom 8 which is already in QM block.
 Coordinate D41 contains atom 1 which is already in QM block.
 Coordinate D41 contains atom 9 which is already in QM block.
 Coordinate D41 contains atom 11 which is already in QM block.
 Coordinate D41 contains atom 12 which is already in QM block.
 Coordinate D42 contains atom 10 which is already in QM block.
 Coordinate D42 contains atom 9 which is already in QM block.
 Coordinate D42 contains atom 11 which is already in QM block.
 Coordinate D42 contains atom 8 which is already in QM block.
 Coordinate D43 contains atom 10 which is already in QM block.
 Coordinate D43 contains atom 9 which is already in QM block.
 Coordinate D43 contains atom 11 which is already in QM block.
 Coordinate D43 contains atom 12 which is already in QM block.
 Coordinate D44 contains atom 3 which is already in QM block.
 Coordinate D44 contains atom 13 which is already in QM block.
 Coordinate D44 contains atom 23 which is already in QM block.
 Coordinate D44 contains atom 18 which is already in QM block.
 Coordinate D45 contains atom 14 which is already in QM block.
 Coordinate D45 contains atom 13 which is already in QM block.
 Coordinate D45 contains atom 23 which is already in QM block.
 Coordinate D45 contains atom 18 which is already in QM block.
 Coordinate D46 contains atom 24 which is already in QM block.
 Coordinate D46 contains atom 17 which is already in QM block.
 Coordinate D46 contains atom 22 which is already in QM block.
 Coordinate D46 contains atom 5 which is already in QM block.
 Coordinate D47 contains atom 25 which is already in QM block.
 Coordinate D47 contains atom 17 which is already in QM block.
 Coordinate D47 contains atom 22 which is already in QM block.
 Coordinate D47 contains atom 5 which is already in QM block.
 Coordinate D48 contains atom 22 which is already in QM block.
 Coordinate D48 contains atom 17 which is already in QM block.
 Coordinate D48 contains atom 24 which is already in QM block.
 Coordinate D48 contains atom 20 which is already in QM block.
 Coordinate D49 contains atom 22 which is already in QM block.
 Coordinate D49 contains atom 17 which is already in QM block.
 Coordinate D49 contains atom 24 which is already in QM block.
 Coordinate D49 contains atom 30 which is already in QM block.
 Coordinate D50 contains atom 25 which is already in QM block.
 Coordinate D50 contains atom 17 which is already in QM block.
 Coordinate D50 contains atom 24 which is already in QM block.
 Coordinate D50 contains atom 20 which is already in QM block.
 Coordinate D51 contains atom 25 which is already in QM block.
 Coordinate D51 contains atom 17 which is already in QM block.
 Coordinate D51 contains atom 24 which is already in QM block.
 Coordinate D51 contains atom 30 which is already in QM block.
 Coordinate D52 contains atom 22 which is already in QM block.
 Coordinate D52 contains atom 17 which is already in QM block.
 Coordinate D52 contains atom 25 which is already in QM block.
 Coordinate D52 contains atom 16 which is already in QM block.
 Coordinate D53 contains atom 22 which is already in QM block.
 Coordinate D53 contains atom 17 which is already in QM block.
 Coordinate D53 contains atom 25 which is already in QM block.
 Coordinate D53 contains atom 18 which is already in QM block.
 Coordinate D54 contains atom 24 which is already in QM block.
 Coordinate D54 contains atom 17 which is already in QM block.
 Coordinate D54 contains atom 25 which is already in QM block.
 Coordinate D54 contains atom 16 which is already in QM block.
 Coordinate D55 contains atom 24 which is already in QM block.
 Coordinate D55 contains atom 17 which is already in QM block.
 Coordinate D55 contains atom 25 which is already in QM block.
 Coordinate D55 contains atom 18 which is already in QM block.
 Coordinate D56 contains atom 23 which is already in QM block.
 Coordinate D56 contains atom 18 which is already in QM block.
 Coordinate D56 contains atom 19 which is already in QM block.
 Coordinate D56 contains atom 20 which is already in QM block.
 Coordinate D57 contains atom 23 which is already in QM block.
 Coordinate D57 contains atom 18 which is already in QM block.
 Coordinate D57 contains atom 19 which is already in QM block.
 Coordinate D57 contains atom 26 which is already in QM block.
 Coordinate D58 contains atom 25 which is already in QM block.
 Coordinate D58 contains atom 18 which is already in QM block.
 Coordinate D58 contains atom 19 which is already in QM block.
 Coordinate D58 contains atom 20 which is already in QM block.
 Coordinate D59 contains atom 25 which is already in QM block.
 Coordinate D59 contains atom 18 which is already in QM block.
 Coordinate D59 contains atom 19 which is already in QM block.
 Coordinate D59 contains atom 26 which is already in QM block.
 Coordinate D60 contains atom 19 which is already in QM block.
 Coordinate D60 contains atom 18 which is already in QM block.
 Coordinate D60 contains atom 23 which is already in QM block.
 Coordinate D60 contains atom 15 which is already in QM block.
 Coordinate D61 contains atom 25 which is already in QM block.
 Coordinate D61 contains atom 18 which is already in QM block.
 Coordinate D61 contains atom 23 which is already in QM block.
 Coordinate D61 contains atom 15 which is already in QM block.
 Coordinate D62 contains atom 19 which is already in QM block.
 Coordinate D62 contains atom 18 which is already in QM block.
 Coordinate D62 contains atom 25 which is already in QM block.
 Coordinate D62 contains atom 16 which is already in QM block.
 Coordinate D63 contains atom 19 which is already in QM block.
 Coordinate D63 contains atom 18 which is already in QM block.
 Coordinate D63 contains atom 25 which is already in QM block.
 Coordinate D63 contains atom 17 which is already in QM block.
 Coordinate D64 contains atom 23 which is already in QM block.
 Coordinate D64 contains atom 18 which is already in QM block.
 Coordinate D64 contains atom 25 which is already in QM block.
 Coordinate D64 contains atom 16 which is already in QM block.
 Coordinate D65 contains atom 23 which is already in QM block.
 Coordinate D65 contains atom 18 which is already in QM block.
 Coordinate D65 contains atom 25 which is already in QM block.
 Coordinate D65 contains atom 17 which is already in QM block.
 Coordinate D66 contains atom 18 which is already in QM block.
 Coordinate D66 contains atom 19 which is already in QM block.
 Coordinate D66 contains atom 20 which is already in QM block.
 Coordinate D66 contains atom 21 which is already in QM block.
 Coordinate D67 contains atom 18 which is already in QM block.
 Coordinate D67 contains atom 19 which is already in QM block.
 Coordinate D67 contains atom 20 which is already in QM block.
 Coordinate D67 contains atom 24 which is already in QM block.
 Coordinate D68 contains atom 26 which is already in QM block.
 Coordinate D68 contains atom 19 which is already in QM block.
 Coordinate D68 contains atom 20 which is already in QM block.
 Coordinate D68 contains atom 21 which is already in QM block.
 Coordinate D69 contains atom 26 which is already in QM block.
 Coordinate D69 contains atom 19 which is already in QM block.
 Coordinate D69 contains atom 20 which is already in QM block.
 Coordinate D69 contains atom 24 which is already in QM block.
 Coordinate D70 contains atom 18 which is already in QM block.
 Coordinate D70 contains atom 19 which is already in QM block.
 Coordinate D70 contains atom 26 which is already in QM block.
 Coordinate D70 contains atom 27 which is already in QM block.
 Coordinate D71 contains atom 18 which is already in QM block.
 Coordinate D71 contains atom 19 which is already in QM block.
 Coordinate D71 contains atom 26 which is already in QM block.
 Coordinate D71 contains atom 28 which is already in QM block.
 Coordinate D72 contains atom 18 which is already in QM block.
 Coordinate D72 contains atom 19 which is already in QM block.
 Coordinate D72 contains atom 26 which is already in QM block.
 Coordinate D72 contains atom 29 which is already in QM block.
 Coordinate D73 contains atom 20 which is already in QM block.
 Coordinate D73 contains atom 19 which is already in QM block.
 Coordinate D73 contains atom 26 which is already in QM block.
 Coordinate D73 contains atom 27 which is already in QM block.
 Coordinate D74 contains atom 20 which is already in QM block.
 Coordinate D74 contains atom 19 which is already in QM block.
 Coordinate D74 contains atom 26 which is already in QM block.
 Coordinate D74 contains atom 28 which is already in QM block.
 Coordinate D75 contains atom 20 which is already in QM block.
 Coordinate D75 contains atom 19 which is already in QM block.
 Coordinate D75 contains atom 26 which is already in QM block.
 Coordinate D75 contains atom 29 which is already in QM block.
 Coordinate D76 contains atom 19 which is already in QM block.
 Coordinate D76 contains atom 20 which is already in QM block.
 Coordinate D76 contains atom 24 which is already in QM block.
 Coordinate D76 contains atom 17 which is already in QM block.
 Coordinate D77 contains atom 19 which is already in QM block.
 Coordinate D77 contains atom 20 which is already in QM block.
 Coordinate D77 contains atom 24 which is already in QM block.
 Coordinate D77 contains atom 30 which is already in QM block.
 Coordinate D78 contains atom 21 which is already in QM block.
 Coordinate D78 contains atom 20 which is already in QM block.
 Coordinate D78 contains atom 24 which is already in QM block.
 Coordinate D78 contains atom 17 which is already in QM block.
 Coordinate D79 contains atom 21 which is already in QM block.
 Coordinate D79 contains atom 20 which is already in QM block.
 Coordinate D79 contains atom 24 which is already in QM block.
 Coordinate D79 contains atom 30 which is already in QM block.
 Saved connectivity
 I=     1 IAn=  6 IBond, RBType=     2  1.50     7  1.50     9  1.50
 I=     2 IAn=  6 IBond, RBType=     1  1.50     3  1.50     8  1.00
 I=     3 IAn=  6 IBond, RBType=     2  1.50     6  1.50    13  1.50
 I=     4 IAn=  6 IBond, RBType=     5  1.00     6  1.50     7  1.50
 I=     5 IAn=  1 IBond, RBType=     4  1.00
 I=     6 IAn=  7 IBond, RBType=     3  1.50     4  1.50    16  0.10
 I=     7 IAn=  7 IBond, RBType=     1  1.50     4  1.50
 I=     8 IAn=  7 IBond, RBType=     2  1.00    11  2.00
 I=     9 IAn=  7 IBond, RBType=     1  1.50    10  1.00    11  1.50
 I=    10 IAn=  1 IBond, RBType=     9  1.00
 I=    11 IAn=  6 IBond, RBType=     8  2.00     9  1.50    12  1.00
 I=    12 IAn=  1 IBond, RBType=    11  1.00
 I=    13 IAn=  7 IBond, RBType=     3  1.50    14  1.00    15  1.00
 I=    14 IAn=  1 IBond, RBType=    13  1.00
 I=    15 IAn=  1 IBond, RBType=    13  1.00    23  0.10
 I=    16 IAn=  1 IBond, RBType=     6  0.10    25  1.00
 I=    17 IAn=  6 IBond, RBType=    22  2.00    24  1.00    25  1.50
 I=    18 IAn=  6 IBond, RBType=    19  1.00    23  2.00    25  1.00
 I=    19 IAn=  6 IBond, RBType=    18  1.00    20  2.00    26  1.00
 I=    20 IAn=  6 IBond, RBType=    19  2.00    21  1.00    24  1.50
 I=    21 IAn=  1 IBond, RBType=    20  1.00
 I=    22 IAn=  8 IBond, RBType=    17  2.00
 I=    23 IAn=  8 IBond, RBType=    15  0.10    18  2.00
 I=    24 IAn=  7 IBond, RBType=    17  1.00    20  1.50    30  1.00
 I=    25 IAn=  7 IBond, RBType=    16  1.00    17  1.50    18  1.00
 I=    26 IAn=  6 IBond, RBType=    19  1.00    27  1.00    28  1.00    29  1.00
 I=    27 IAn=  1 IBond, RBType=    26  1.00
 I=    28 IAn=  1 IBond, RBType=    26  1.00
 I=    29 IAn=  1 IBond, RBType=    26  1.00
 I=    30 IAn=  1 IBond, RBType=    24  1.00
 ITRead=  0  0  0  0  0  0  0  0  0  0  0  0  0  0  0  0  0  0  0  0
 ITRead=  0  0  0  0  0  0  0  0  0  0
 MicOpt= -1 -1 -1 -1 -1 -1 -1 -1 -1 -1 -1 -1 -1 -1 -1 -1 -1 -1 -1 -1
 MicOpt= -1 -1 -1 -1 -1 -1 -1 -1 -1 -1
 NAtoms=     30 NQM=       30 NQMF=       0 NMMI=      0 NMMIF=      0
                NMic=       0 NMicF=      0.
 No MM parameters found.
 Leave Link  101 at Sat Aug 10 23:03:37 2019, MaxMem=  4294967296 cpu:               4.8 elap:               0.5

 GradGradGradGradGradGradGradGradGradGradGradGradGradGradGradGradGradGrad
 Berny optimization.
 GetPCM: File not found, return IValue=0.
 Optmz: redundant internal coordinate code flag= 1
 Initialization pass.
                           ----------------------------
                           !    Initial Parameters    !
                           ! (Angstroms and Degrees)  !
 --------------------------                            --------------------------
 ! Name  Definition              Value          Derivative Info.                !
 --------------------------------------------------------------------------------
 ! R1    R(1,2)                  1.3978         calculate D2E/DX2 analytically  !
 ! R2    R(1,7)                  1.3421         calculate D2E/DX2 analytically  !
 ! R3    R(1,9)                  1.377          calculate D2E/DX2 analytically  !
 ! R4    R(2,3)                  1.4147         calculate D2E/DX2 analytically  !
 ! R5    R(2,8)                  1.3844         calculate D2E/DX2 analytically  !
 ! R6    R(3,6)                  1.3534         calculate D2E/DX2 analytically  !
 ! R7    R(3,13)                 1.3421         calculate D2E/DX2 analytically  !
 ! R8    R(4,5)                  1.0877         calculate D2E/DX2 analytically  !
 ! R9    R(4,6)                  1.3475         calculate D2E/DX2 analytically  !
 ! R10   R(4,7)                  1.332          calculate D2E/DX2 analytically  !
 ! R11   R(5,22)                 2.7994         calculate D2E/DX2 analytically  !
 ! R12   R(6,16)                 1.7961         calculate D2E/DX2 analytically  !
 ! R13   R(8,11)                 1.3107         calculate D2E/DX2 analytically  !
 ! R14   R(9,10)                 1.0088         calculate D2E/DX2 analytically  !
 ! R15   R(9,11)                 1.3809         calculate D2E/DX2 analytically  !
 ! R16   R(11,12)                1.0817         calculate D2E/DX2 analytically  !
 ! R17   R(13,14)                1.0069         calculate D2E/DX2 analytically  !
 ! R18   R(13,15)                1.0219         calculate D2E/DX2 analytically  !
 ! R19   R(15,23)                1.9205         calculate D2E/DX2 analytically  !
 ! R20   R(16,25)                1.0488         calculate D2E/DX2 analytically  !
 ! R21   R(17,22)                1.221          calculate D2E/DX2 analytically  !
 ! R22   R(17,24)                1.3931         calculate D2E/DX2 analytically  !
 ! R23   R(17,25)                1.3804         calculate D2E/DX2 analytically  !
 ! R24   R(18,19)                1.4656         calculate D2E/DX2 analytically  !
 ! R25   R(18,23)                1.2359         calculate D2E/DX2 analytically  !
 ! R26   R(18,25)                1.3886         calculate D2E/DX2 analytically  !
 ! R27   R(19,20)                1.3533         calculate D2E/DX2 analytically  !
 ! R28   R(19,26)                1.5004         calculate D2E/DX2 analytically  !
 ! R29   R(20,21)                1.0851         calculate D2E/DX2 analytically  !
 ! R30   R(20,24)                1.3764         calculate D2E/DX2 analytically  !
 ! R31   R(24,30)                1.0094         calculate D2E/DX2 analytically  !
 ! R32   R(26,27)                1.0949         calculate D2E/DX2 analytically  !
 ! R33   R(26,28)                1.0949         calculate D2E/DX2 analytically  !
 ! R34   R(26,29)                1.0934         calculate D2E/DX2 analytically  !
 ! A1    A(2,1,7)              127.2501         calculate D2E/DX2 analytically  !
 ! A2    A(2,1,9)              104.433          calculate D2E/DX2 analytically  !
 ! A3    A(7,1,9)              128.3169         calculate D2E/DX2 analytically  !
 ! A4    A(1,2,3)              116.347          calculate D2E/DX2 analytically  !
 ! A5    A(1,2,8)              111.5198         calculate D2E/DX2 analytically  !
 ! A6    A(3,2,8)              132.1332         calculate D2E/DX2 analytically  !
 ! A7    A(2,3,6)              117.3136         calculate D2E/DX2 analytically  !
 ! A8    A(2,3,13)             123.2086         calculate D2E/DX2 analytically  !
 ! A9    A(6,3,13)             119.4778         calculate D2E/DX2 analytically  !
 ! A10   A(5,4,6)              114.6124         calculate D2E/DX2 analytically  !
 ! A11   A(5,4,7)              117.2102         calculate D2E/DX2 analytically  !
 ! A12   A(6,4,7)              128.1774         calculate D2E/DX2 analytically  !
 ! A13   A(4,5,22)             132.9363         calculate D2E/DX2 analytically  !
 ! A14   A(3,6,4)              119.7375         calculate D2E/DX2 analytically  !
 ! A15   A(3,6,16)             122.7035         calculate D2E/DX2 analytically  !
 ! A16   A(4,6,16)             117.559          calculate D2E/DX2 analytically  !
 ! A17   A(1,7,4)              111.1744         calculate D2E/DX2 analytically  !
 ! A18   A(2,8,11)             103.9517         calculate D2E/DX2 analytically  !
 ! A19   A(1,9,10)             125.7111         calculate D2E/DX2 analytically  !
 ! A20   A(1,9,11)             106.7491         calculate D2E/DX2 analytically  !
 ! A21   A(10,9,11)            127.5398         calculate D2E/DX2 analytically  !
 ! A22   A(8,11,9)             113.3464         calculate D2E/DX2 analytically  !
 ! A23   A(8,11,12)            125.222          calculate D2E/DX2 analytically  !
 ! A24   A(9,11,12)            121.4316         calculate D2E/DX2 analytically  !
 ! A25   A(3,13,14)            118.6989         calculate D2E/DX2 analytically  !
 ! A26   A(3,13,15)            120.5976         calculate D2E/DX2 analytically  !
 ! A27   A(14,13,15)           120.7035         calculate D2E/DX2 analytically  !
 ! A28   A(22,17,24)           122.2776         calculate D2E/DX2 analytically  !
 ! A29   A(22,17,25)           124.3775         calculate D2E/DX2 analytically  !
 ! A30   A(24,17,25)           113.3449         calculate D2E/DX2 analytically  !
 ! A31   A(19,18,23)           123.0175         calculate D2E/DX2 analytically  !
 ! A32   A(19,18,25)           116.0703         calculate D2E/DX2 analytically  !
 ! A33   A(23,18,25)           120.9122         calculate D2E/DX2 analytically  !
 ! A34   A(18,19,20)           117.6749         calculate D2E/DX2 analytically  !
 ! A35   A(18,19,26)           118.2784         calculate D2E/DX2 analytically  !
 ! A36   A(20,19,26)           124.0467         calculate D2E/DX2 analytically  !
 ! A37   A(19,20,21)           122.3379         calculate D2E/DX2 analytically  !
 ! A38   A(19,20,24)           122.309          calculate D2E/DX2 analytically  !
 ! A39   A(21,20,24)           115.3531         calculate D2E/DX2 analytically  !
 ! A40   A(5,22,17)            114.8793         calculate D2E/DX2 analytically  !
 ! A41   A(15,23,18)           124.4439         calculate D2E/DX2 analytically  !
 ! A42   A(17,24,20)           123.6197         calculate D2E/DX2 analytically  !
 ! A43   A(17,24,30)           115.071          calculate D2E/DX2 analytically  !
 ! A44   A(20,24,30)           121.3093         calculate D2E/DX2 analytically  !
 ! A45   A(16,25,17)           115.6817         calculate D2E/DX2 analytically  !
 ! A46   A(16,25,18)           117.3371         calculate D2E/DX2 analytically  !
 ! A47   A(17,25,18)           126.9812         calculate D2E/DX2 analytically  !
 ! A48   A(19,26,27)           110.8656         calculate D2E/DX2 analytically  !
 ! A49   A(19,26,28)           110.8656         calculate D2E/DX2 analytically  !
 ! A50   A(19,26,29)           111.2678         calculate D2E/DX2 analytically  !
 ! A51   A(27,26,28)           106.498          calculate D2E/DX2 analytically  !
 ! A52   A(27,26,29)           108.5928         calculate D2E/DX2 analytically  !
 ! A53   A(28,26,29)           108.5928         calculate D2E/DX2 analytically  !
 ! A54   L(13,15,23,5,-1)      174.4817         calculate D2E/DX2 analytically  !
 ! A55   L(6,16,25,15,-1)      180.0461         calculate D2E/DX2 analytically  !
 ! A56   L(13,15,23,5,-2)      180.0            calculate D2E/DX2 analytically  !
 ! A57   L(6,16,25,15,-2)      180.0            calculate D2E/DX2 analytically  !
 ! D1    D(7,1,2,3)              0.0            calculate D2E/DX2 analytically  !
 ! D2    D(7,1,2,8)            180.0            calculate D2E/DX2 analytically  !
 ! D3    D(9,1,2,3)            180.0            calculate D2E/DX2 analytically  !
 ! D4    D(9,1,2,8)              0.0            calculate D2E/DX2 analytically  !
 ! D5    D(2,1,7,4)              0.0            calculate D2E/DX2 analytically  !
 ! D6    D(9,1,7,4)            180.0            calculate D2E/DX2 analytically  !
 ! D7    D(2,1,9,10)           180.0            calculate D2E/DX2 analytically  !
 ! D8    D(2,1,9,11)             0.0            calculate D2E/DX2 analytically  !
 ! D9    D(7,1,9,10)             0.0            calculate D2E/DX2 analytically  !
 ! D10   D(7,1,9,11)           180.0            calculate D2E/DX2 analytically  !
 ! D11   D(1,2,3,6)              0.0            calculate D2E/DX2 analytically  !
 ! D12   D(1,2,3,13)           180.0            calculate D2E/DX2 analytically  !
 ! D13   D(8,2,3,6)            180.0            calculate D2E/DX2 analytically  !
 ! D14   D(8,2,3,13)             0.0            calculate D2E/DX2 analytically  !
 ! D15   D(1,2,8,11)             0.0            calculate D2E/DX2 analytically  !
 ! D16   D(3,2,8,11)           180.0            calculate D2E/DX2 analytically  !
 ! D17   D(2,3,6,4)              0.0            calculate D2E/DX2 analytically  !
 ! D18   D(2,3,6,16)           180.0            calculate D2E/DX2 analytically  !
 ! D19   D(13,3,6,4)           180.0            calculate D2E/DX2 analytically  !
 ! D20   D(13,3,6,16)            0.0            calculate D2E/DX2 analytically  !
 ! D21   D(2,3,13,14)            0.0            calculate D2E/DX2 analytically  !
 ! D22   D(2,3,13,15)          180.0            calculate D2E/DX2 analytically  !
 ! D23   D(6,3,13,14)          180.0            calculate D2E/DX2 analytically  !
 ! D24   D(6,3,13,15)            0.0            calculate D2E/DX2 analytically  !
 ! D25   D(6,4,5,22)             0.0            calculate D2E/DX2 analytically  !
 ! D26   D(7,4,5,22)           180.0            calculate D2E/DX2 analytically  !
 ! D27   D(5,4,6,3)            180.0            calculate D2E/DX2 analytically  !
 ! D28   D(5,4,6,16)             0.0            calculate D2E/DX2 analytically  !
 ! D29   D(7,4,6,3)              0.0            calculate D2E/DX2 analytically  !
 ! D30   D(7,4,6,16)           180.0            calculate D2E/DX2 analytically  !
 ! D31   D(5,4,7,1)            180.0            calculate D2E/DX2 analytically  !
 ! D32   D(6,4,7,1)              0.0            calculate D2E/DX2 analytically  !
 ! D33   D(4,5,22,17)            0.0            calculate D2E/DX2 analytically  !
 ! D34   D(3,6,25,17)          180.0            calculate D2E/DX2 analytically  !
 ! D35   D(3,6,25,18)            0.0            calculate D2E/DX2 analytically  !
 ! D36   D(4,6,25,17)            0.0            calculate D2E/DX2 analytically  !
 ! D37   D(4,6,25,18)          180.0            calculate D2E/DX2 analytically  !
 ! D38   D(2,8,11,9)             0.0            calculate D2E/DX2 analytically  !
 ! D39   D(2,8,11,12)          180.0            calculate D2E/DX2 analytically  !
 ! D40   D(1,9,11,8)             0.0            calculate D2E/DX2 analytically  !
 ! D41   D(1,9,11,12)          180.0            calculate D2E/DX2 analytically  !
 ! D42   D(10,9,11,8)          180.0            calculate D2E/DX2 analytically  !
 ! D43   D(10,9,11,12)           0.0            calculate D2E/DX2 analytically  !
 ! D44   D(3,13,23,18)           0.0            calculate D2E/DX2 analytically  !
 ! D45   D(14,13,23,18)        180.0            calculate D2E/DX2 analytically  !
 ! D46   D(24,17,22,5)         180.0            calculate D2E/DX2 analytically  !
 ! D47   D(25,17,22,5)           0.0            calculate D2E/DX2 analytically  !
 ! D48   D(22,17,24,20)        180.0            calculate D2E/DX2 analytically  !
 ! D49   D(22,17,24,30)          0.0            calculate D2E/DX2 analytically  !
 ! D50   D(25,17,24,20)          0.0            calculate D2E/DX2 analytically  !
 ! D51   D(25,17,24,30)        180.0            calculate D2E/DX2 analytically  !
 ! D52   D(22,17,25,16)          0.0            calculate D2E/DX2 analytically  !
 ! D53   D(22,17,25,18)        180.0            calculate D2E/DX2 analytically  !
 ! D54   D(24,17,25,16)        180.0            calculate D2E/DX2 analytically  !
 ! D55   D(24,17,25,18)          0.0            calculate D2E/DX2 analytically  !
 ! D56   D(23,18,19,20)        180.0            calculate D2E/DX2 analytically  !
 ! D57   D(23,18,19,26)          0.0            calculate D2E/DX2 analytically  !
 ! D58   D(25,18,19,20)          0.0            calculate D2E/DX2 analytically  !
 ! D59   D(25,18,19,26)        180.0            calculate D2E/DX2 analytically  !
 ! D60   D(19,18,23,15)        180.0            calculate D2E/DX2 analytically  !
 ! D61   D(25,18,23,15)          0.0            calculate D2E/DX2 analytically  !
 ! D62   D(19,18,25,16)        180.0            calculate D2E/DX2 analytically  !
 ! D63   D(19,18,25,17)          0.0            calculate D2E/DX2 analytically  !
 ! D64   D(23,18,25,16)          0.0            calculate D2E/DX2 analytically  !
 ! D65   D(23,18,25,17)        180.0            calculate D2E/DX2 analytically  !
 ! D66   D(18,19,20,21)        180.0            calculate D2E/DX2 analytically  !
 ! D67   D(18,19,20,24)          0.0            calculate D2E/DX2 analytically  !
 ! D68   D(26,19,20,21)          0.0            calculate D2E/DX2 analytically  !
 ! D69   D(26,19,20,24)        180.0            calculate D2E/DX2 analytically  !
 ! D70   D(18,19,26,27)        -59.0346         calculate D2E/DX2 analytically  !
 ! D71   D(18,19,26,28)         59.0346         calculate D2E/DX2 analytically  !
 ! D72   D(18,19,26,29)        180.0            calculate D2E/DX2 analytically  !
 ! D73   D(20,19,26,27)        120.9654         calculate D2E/DX2 analytically  !
 ! D74   D(20,19,26,28)       -120.9654         calculate D2E/DX2 analytically  !
 ! D75   D(20,19,26,29)          0.0            calculate D2E/DX2 analytically  !
 ! D76   D(19,20,24,17)          0.0            calculate D2E/DX2 analytically  !
 ! D77   D(19,20,24,30)        180.0            calculate D2E/DX2 analytically  !
 ! D78   D(21,20,24,17)        180.0            calculate D2E/DX2 analytically  !
 ! D79   D(21,20,24,30)          0.0            calculate D2E/DX2 analytically  !
 --------------------------------------------------------------------------------
 Maximum allowed force set to 1.00D+20.
 Trust Radius=3.00D-01 FncErr=1.00D-07 GrdErr=1.00D-07 EigMax=2.50D+02 EigMin=1.00D-04
 Number of steps in this run=      2 maximum allowed number of steps=      2.
 GradGradGradGradGradGradGradGradGradGradGradGradGradGradGradGradGradGrad

 Leave Link  103 at Sat Aug 10 23:03:37 2019, MaxMem=  4294967296 cpu:               1.0 elap:               0.2
                          Input orientation:                          
 ---------------------------------------------------------------------
 Center     Atomic      Atomic             Coordinates (Angstroms)
 Number     Number       Type             X           Y           Z
 ---------------------------------------------------------------------
      1          6           0       -2.204391   -2.949190    0.000000
      2          6           0       -0.811703   -3.068741    0.000000
      3          6           0       -0.077707   -1.859312    0.000000
      4          6           0       -2.130431   -0.744373    0.000000
      5          1           0       -2.612490    0.230658    0.000000
      6          7           0       -0.783522   -0.704501    0.000000
      7          7           0       -2.922387   -1.815352    0.000000
      8          7           0       -0.415897   -4.395311    0.000000
      9          7           0       -2.660395   -4.248472    0.000000
     10          1           0       -3.628305   -4.532825    0.000000
     11          6           0       -1.544510   -5.061845    0.000000
     12          1           0       -1.632327   -6.139929    0.000000
     13          7           0        1.263653   -1.813520    0.000000
     14          1           0        1.777037   -2.679735    0.000000
     15          1           0        1.753476   -0.916699    0.000000
     16          1           0        0.000000    0.911725    0.000000
     17          6           0       -0.402567    2.936148    0.000000
     18          6           0        1.844876    1.892690    0.000000
     19          6           0        2.453839    3.225824    0.000000
     20          6           0        1.624866    4.295506    0.000000
     21          1           0        1.993974    5.315853    0.000000
     22          8           0       -1.620436    2.848347    0.000000
     23          8           0        2.507710    0.849522    0.000000
     24          7           0        0.254754    4.164409    0.000000
     25          7           0        0.456764    1.855860    0.000000
     26          6           0        3.951028    3.323376    0.000000
     27          1           0        4.374411    2.823437    0.877291
     28          1           0        4.374411    2.823437   -0.877291
     29          1           0        4.280545    4.365942    0.000000
     30          1           0       -0.349522    4.972898    0.000000
 ---------------------------------------------------------------------
                    Distance matrix (angstroms):
                    1          2          3          4          5
     1  C    0.000000
     2  C    1.397810   0.000000
     3  C    2.389690   1.414733   0.000000
     4  C    2.206057   2.672402   2.335972   0.000000
     5  H    3.205929   3.758839   3.285285   1.087689   0.000000
     6  N    2.656595   2.364408   1.353426   1.347499   2.054178
     7  N    1.342053   2.454785   2.845020   1.331987   2.069346
     8  N    2.299995   1.384359   2.558449   4.033482   5.120997
     9  N    1.376980   2.193041   3.518290   3.543949   4.479386
    10  H    2.129655   3.174396   4.444594   4.073818   4.870590
    11  C    2.213313   2.123551   3.522461   4.357048   5.399182
    12  H    3.241616   3.178934   4.554177   5.418499   6.445549
    13  N    3.649257   2.425424   1.342141   3.558494   4.382140
    14  H    3.990536   2.617805   2.028095   4.360497   5.266720
    15  H    4.449239   3.348347   2.059551   3.887728   4.514209
    16  H    4.445897   4.062385   2.772126   2.698406   2.699807
    17  C    6.154980   6.018811   4.806451   4.065925   3.493342
    18  C    6.311922   5.627896   4.215904   4.770447   4.757149
    19  C    7.734979   7.091214   5.680434   6.064486   5.885466
    20  C    8.194439   7.756868   6.385964   6.285112   5.871812
    21  H    9.270232   8.841563   7.468256   7.330556   6.861393
    22  O    5.826872   5.972100   4.953995   3.628737   2.799369
    23  O    6.052612   5.135298   3.744618   4.904371   5.157465
    24  N    7.526665   7.311347   6.032889   5.457586   4.867801
    25  N    5.492745   5.085342   3.753420   3.668077   3.472982
    26  C    8.788303   7.971372   6.564371   7.316469   7.255665
    27  H    8.796221   7.898302   6.520670   7.470735   7.503928
    28  H    8.796221   7.898302   6.520670   7.470735   7.503928
    29  H    9.775763   9.011409   7.599220   8.198532   8.038315
    30  H    8.136339   8.054910   6.837615   5.988224   5.254509
                    6          7          8          9         10
     6  N    0.000000
     7  N    2.410131   0.000000
     8  N    3.709074   3.597038   0.000000
     9  N    4.010285   2.447185   2.249296   0.000000
    10  H    4.769576   2.807664   3.215350   1.008814   0.000000
    11  C    4.423296   3.526792   1.310738   1.380860   2.149899
    12  H    5.501304   4.512895   2.126827   2.152797   2.562560
    13  N    2.328272   4.186040   3.080022   4.618132   5.596952
    14  H    3.233885   4.778257   2.784270   4.706563   5.714164
    15  H    2.545857   4.761436   4.099624   5.530187   6.483821
    16  H    1.796133   3.997161   5.323307   5.805630   6.542761
    17  C    3.660526   5.378312   7.331471   7.531039   8.135782
    18  C    3.695115   6.039567   6.682069   7.616517   8.440554
    19  C    5.091951   7.370025   8.143530   9.056516   9.858454
    20  C    5.549811   7.617092   8.927206   9.558401  10.273034
    21  H    6.630169   8.661679  10.005708  10.636704  11.340480
    22  O    3.650090   4.842021   7.343126   7.172611   7.649395
    23  O    3.639670   6.048761   6.004644   7.259398   8.162128
    24  N    4.978383   6.771393   8.585952   8.903632   9.524706
    25  N    2.844953   4.989635   6.311789   6.854163   7.583079
    26  C    6.216089   8.581979   8.868380  10.052054  10.916326
    27  H    6.310330   8.690872   8.707871  10.013492  10.905397
    28  H    6.310330   8.690872   8.707871  10.013492  10.905397
    29  H    7.166182   9.491608   9.940630  11.062765  11.905375
    30  H    5.693963   7.259475   9.368444   9.506513  10.055306
                   11         12         13         14         15
    11  C    0.000000
    12  H    1.081655   0.000000
    13  N    4.293879   5.206200   0.000000
    14  H    4.087435   4.857644   1.006922   0.000000
    15  H    5.297070   6.224612   1.021868   1.763193   0.000000
    16  H    6.170012   7.238115   3.003961   4.007049   2.533340
    17  C    8.079104   9.159011   5.033452   6.024020   4.415082
    18  C    7.736504   8.752937   3.751508   4.572928   2.810875
    19  C    9.201753  10.218321   5.177985   5.944215   4.201310
    20  C    9.879522  10.931954   6.119696   6.976901   5.213791
    21  H   10.964373  12.016031   7.166682   7.998530   6.237190
    22  O    7.910556   8.988284   5.481877   6.488645   5.055576
    23  O    7.166920   8.123566   2.939298   3.604100   1.920522
    24  N    9.400059  10.475708   6.062468   7.011394   5.297530
    25  N    7.201371   8.264196   3.757049   4.723848   3.060808
    26  C   10.025611  10.987629   5.797386   6.384636   4.775717
    27  H    9.898532  10.825547   5.652241   6.148243   4.650544
    28  H    9.898532  10.825547   5.652241   6.148243   4.650544
    29  H   11.082167  12.055512   6.876583   7.477240   5.855969
    30  H   10.105645  11.186622   6.975515   7.942609   6.253795
                   16         17         18         19         20
    16  H    0.000000
    17  C    2.064061   0.000000
    18  C    2.089464   2.477863   0.000000
    19  C    3.372889   2.871057   1.465634   0.000000
    20  C    3.753687   2.440971   2.412867   1.353298   0.000000
    21  H    4.834488   3.377337   3.426408   2.140023   1.085057
    22  O    2.525137   1.221030   3.594672   4.091724   3.553344
    23  O    2.508481   3.581022   1.235940   2.376913   3.557277
    24  N    3.262645   1.393089   2.772940   2.391007   1.376370
    25  N    1.048820   1.380388   1.388601   2.421799   2.704872
    26  C    4.628896   4.370782   2.546122   1.500364   2.521124
    27  H    4.853839   4.858175   2.834515   2.149454   3.239849
    28  H    4.853839   4.858175   2.834515   2.149454   3.239849
    29  H    5.500425   4.896514   3.471233   2.153305   2.656613
    30  H    4.076186   2.037441   3.781939   3.303195   2.087359
                   21         22         23         24         25
    21  H    0.000000
    22  O    4.376362   0.000000
    23  O    4.495780   4.586599   0.000000
    24  N    2.085835   2.290929   4.008028   0.000000
    25  N    3.786102   2.302127   2.284534   2.317371   0.000000
    26  C    2.792852   5.591678   2.864109   3.790749   3.789919
    27  H    3.556439   6.058750   2.854917   4.420342   4.129625
    28  H    3.556439   6.058750   2.854917   4.420342   4.129625
    29  H    2.476033   6.093002   3.938039   4.030832   4.574037
    30  H    2.368458   2.475669   5.016573   1.009358   3.219631
                   26         27         28         29         30
    26  C    0.000000
    27  H    1.094912   0.000000
    28  H    1.094912   1.754582   0.000000
    29  H    1.093401   1.777012   1.777012   0.000000
    30  H    4.606045   5.263589   5.263589   4.669681   0.000000
 Stoichiometry    C10H11N7O2
 Framework group  CS[SG(C10H9N7O2),X(H2)]
 Deg. of freedom    56
 Full point group                 CS      NOp   2
 Largest Abelian subgroup         CS      NOp   2
 Largest concise Abelian subgroup CS      NOp   2
                         Standard orientation:                         
 ---------------------------------------------------------------------
 Center     Atomic      Atomic             Coordinates (Angstroms)
 Number     Number       Type             X           Y           Z
 ---------------------------------------------------------------------
      1          6           0       -2.204391   -2.949190    0.000000
      2          6           0       -0.811703   -3.068741    0.000000
      3          6           0       -0.077707   -1.859312    0.000000
      4          6           0       -2.130431   -0.744373    0.000000
      5          1           0       -2.612490    0.230658    0.000000
      6          7           0       -0.783522   -0.704501    0.000000
      7          7           0       -2.922387   -1.815352    0.000000
      8          7           0       -0.415897   -4.395311    0.000000
      9          7           0       -2.660395   -4.248472    0.000000
     10          1           0       -3.628305   -4.532825    0.000000
     11          6           0       -1.544510   -5.061845    0.000000
     12          1           0       -1.632327   -6.139929    0.000000
     13          7           0        1.263653   -1.813520    0.000000
     14          1           0        1.777037   -2.679735    0.000000
     15          1           0        1.753476   -0.916699    0.000000
     16          1           0       -0.000000    0.911725    0.000000
     17          6           0       -0.402567    2.936148    0.000000
     18          6           0        1.844876    1.892690    0.000000
     19          6           0        2.453839    3.225824    0.000000
     20          6           0        1.624866    4.295506    0.000000
     21          1           0        1.993974    5.315853    0.000000
     22          8           0       -1.620436    2.848347    0.000000
     23          8           0        2.507710    0.849522    0.000000
     24          7           0        0.254754    4.164409    0.000000
     25          7           0        0.456764    1.855860    0.000000
     26          6           0        3.951028    3.323376    0.000000
     27          1           0        4.374411    2.823437    0.877291
     28          1           0        4.374411    2.823437   -0.877291
     29          1           0        4.280545    4.365942    0.000000
     30          1           0       -0.349522    4.972898    0.000000
 ---------------------------------------------------------------------
 Rotational constants (GHZ):           0.9083049           0.1787228           0.1494753
 Standard basis: 6-31G(d,p) (6D, 7F)
 There are   250 symmetry adapted cartesian basis functions of A'  symmetry.
 There are    90 symmetry adapted cartesian basis functions of A"  symmetry.
 There are   250 symmetry adapted basis functions of A'  symmetry.
 There are    90 symmetry adapted basis functions of A"  symmetry.
   340 basis functions,   609 primitive gaussians,   340 cartesian basis functions
    68 alpha electrons       68 beta electrons
       nuclear repulsion energy      1361.9779270478 Hartrees.
 NAtoms=   30 NActive=   30 NUniq=   29 SFac= 1.07D+00 NAtFMM=   60 NAOKFM=F Big=F
 Integral buffers will be    131072 words long.
 Raffenetti 2 integral format.
 Two-electron integral symmetry is turned on.
 One-electron integrals computed using PRISM.
 NBasis=   340 RedAO= T EigKep=  7.41D-04  NBF=   250    90
 NBsUse=   340 1.00D-06 EigRej= -1.00D+00 NBFU=   250    90
 ExpMin= 1.61D-01 ExpMax= 5.48D+03 ExpMxC= 8.25D+02 IAcc=3 IRadAn=         5 AccDes= 0.00D+00
 Harris functional with IExCor=  402 and IRadAn=       5 diagonalized for initial guess.
 HarFok:  IExCor=  402 AccDes= 0.00D+00 IRadAn=         5 IDoV= 1 UseB2=F ITyADJ=14
 ICtDFT=  3500011 ScaDFX=  1.000000  1.000000  1.000000  1.000000
 FoFCou: FMM=F IPFlag=           0 FMFlag=      100000 FMFlg1=           0
         NFxFlg=           0 DoJE=T BraDBF=F KetDBF=T FulRan=T
         wScrn=  0.000000 ICntrl=       500 IOpCl=  0 I1Cent=   200000004 NGrid=           0
         NMat0=    1 NMatS0=      1 NMatT0=    0 NMatD0=    1 NMtDS0=    0 NMtDT0=    0
 Petite list used in FoFCou.
 Initial guess orbital symmetries:
       Occupied  (A') (A') (A') (A') (A') (A') (A') (A') (A') (A')
                 (A') (A') (A') (A') (A') (A') (A') (A') (A') (A')
                 (A') (A') (A') (A') (A') (A') (A') (A') (A') (A')
                 (A') (A') (A') (A') (A') (A') (A') (A') (A') (A')
                 (A') (A') (A') (A') (A') (A") (A') (A') (A') (A")
                 (A') (A") (A') (A') (A") (A") (A") (A") (A') (A')
                 (A') (A') (A") (A") (A') (A") (A") (A")
       Virtual   (A") (A") (A") (A") (A") (A") (A') (A') (A') (A")
                 (A') (A') (A') (A') (A') (A') (A") (A') (A') (A')
                 (A') (A') (A') (A') (A') (A') (A') (A') (A') (A')
                 (A') (A') (A') (A') (A') (A') (A') (A') (A") (A')
                 (A") (A') (A') (A') (A") (A") (A') (A') (A') (A')
                 (A') (A") (A') (A') (A") (A') (A') (A") (A') (A")
                 (A') (A') (A') (A") (A') (A") (A') (A") (A') (A')
                 (A") (A") (A') (A") (A') (A') (A") (A') (A") (A')
                 (A') (A') (A') (A") (A') (A') (A') (A') (A') (A")
                 (A') (A') (A") (A') (A") (A') (A') (A') (A') (A')
                 (A') (A') (A') (A') (A") (A') (A") (A') (A") (A')
[...]
 43714,0.,0.,0.00353004,0.,0.,0.01134266,0.,0.,0.00832949,0.,0.,-0.0393
 6952,0.,0.,0.02464945,-0.00071236,0.00043580,0.,0.00073561,0.00059750,
 0.,-0.00314476,-0.00005525,0.,-0.00453406,0.00405841,0.,0.00158360,0.0
 0123714,0.,0.00453725,0.00118079,0.,0.00175701,-0.00180859,0.,0.000289
 59,-0.00037773,0.,0.00029167,-0.00005164,0.,-0.00003528,0.00008383,0.,
 0.00003629,0.00004193,0.,0.00002555,-0.00000699,0.,0.00288001,0.001145
 22,0.,0.00009722,0.00014389,0.,-0.00121543,-0.00331126,0.,-0.00502486,
 -0.00819252,0.,-0.68210200,-0.04213333,0.,0.01544160,0.00123316,0.,-0.
 00079498,-0.00283623,0.,0.00044253,-0.00180603,0.,-0.00197954,-0.00017
 027,0.,0.80778995,-0.00010000,0.00054715,0.,0.00015324,0.00009238,0.,-
 0.00155123,0.00061035,0.,-0.00036725,0.00216625,0.,0.00126103,-0.00041
 239,0.,0.00086197,-0.00134578,0.,-0.00005276,-0.00194146,0.,-0.0000364
 2,-0.00044216,0.,-0.00009156,-0.00034883,0.,0.00008762,0.00005811,0.,0
 .00012151,-0.00017965,0.,-0.00001019,-0.00003127,0.,0.00093844,-0.0001
 3871,0.,-0.00007308,0.00006744,0.,-0.00025584,-0.00002637,0.,-0.002780
 26,0.00335597,0.,-0.04268818,-0.10714740,0.,-0.01513689,-0.01210048,0.
 ,-0.00065722,0.00742855,0.,0.01304932,-0.00768815,0.,-0.00222596,-0.00
 026180,0.,0.05511285,0.10357174,0.,0.,-0.00010944,0.,0.,-0.00006525,0.
 ,0.,-0.00010924,0.,0.,0.00007130,0.,0.,-0.00086520,0.,0.,0.00066070,0.
 ,0.,0.00025911,0.,0.,0.00002839,0.,0.,0.00002965,0.,0.,-0.00003805,0.,
 0.,-0.00000127,0.,0.,-0.00000285,0.,0.,0.00016347,0.,0.,-0.00004129,0.
 ,0.,-0.00006619,0.,0.,-0.00331548,0.,0.,-0.07812108,0.,0.,0.00777867,0
 .,0.,-0.00141954,0.,0.,0.00501279,0.,0.,-0.00013355,0.,0.,0.03763000,-
 0.00043040,0.00091339,0.,0.00078132,0.00024118,0.,-0.00356217,0.001639
 89,0.,0.00111478,0.00048461,0.,0.00026464,0.00019940,0.,-0.00112096,-0
 .00284076,0.,-0.00036443,-0.00139594,0.,0.00006257,-0.00039205,0.,0.00
 000335,-0.00035450,0.,0.00003480,0.00004540,0.,-0.00004898,-0.00004303
 ,0.,-0.00001798,-0.00002186,0.,0.00647031,-0.00098837,0.,-0.00103219,-
 0.00061905,0.,-0.00939108,-0.00523216,0.,0.00628910,0.00490235,0.,0.00
 342233,-0.02338180,0.,-0.24118461,0.23287697,0.,0.01586589,0.00872945,
 0.,-0.00383659,-0.00653987,0.,0.00080805,-0.00033594,0.,-0.00693008,0.
 00581197,0.,0.29330459,0.00240190,-0.00138257,0.,-0.00428136,-0.000853
 53,0.,0.01579656,-0.00356519,0.,0.00122885,-0.00166538,0.,-0.00058894,
 -0.00026516,0.,-0.00339176,0.00804501,0.,-0.00166742,0.00193820,0.,-0.
 00034411,0.00041650,0.,-0.00075162,-0.00015449,0.,0.00014522,-0.000022
 44,0.,0.00008754,-0.00041684,0.,-0.00004706,-0.00002779,0.,-0.01386042
 ,-0.01407489,0.,-0.00223420,-0.00173528,0.,0.00325246,0.01338802,0.,-0
 .00133836,-0.00974803,0.,-0.01006324,0.00024243,0.,0.22646463,-0.49783
 380,0.,0.02839528,-0.07314387,0.,-0.02138830,0.00073079,0.,0.00184923,
 -0.00209308,0.,0.00640045,0.00040957,0.,-0.28905218,0.57241774,0.,0.,-
 0.00008472,0.,0.,-0.00024440,0.,0.,-0.00055555,0.,0.,-0.00002308,0.,0.
 ,0.00000076,0.,0.,0.00113060,0.,0.,-0.00001384,0.,0.,0.00006915,0.,0.,
 0.00005012,0.,0.,-0.00002273,0.,0.,-0.00000183,0.,0.,-0.00000395,0.,0.
 ,0.00386933,0.,0.,-0.00020315,0.,0.,-0.00622866,0.,0.,-0.00412507,0.,0
 .,0.00823763,0.,0.,-0.07183607,0.,0.,0.01947751,0.,0.,0.00351164,0.,0.
 ,-0.00236361,0.,0.,-0.00163917,0.,0.,0.03622814,-0.00054203,0.00050299
 ,0.,0.00072836,0.00036980,0.,-0.00332744,0.00037953,0.,-0.00154377,0.0
 0219906,0.,0.00093117,0.00074299,0.,0.00238615,-0.00080829,0.,0.000777
 43,-0.00122591,0.,0.00016630,-0.00029484,0.,0.00016345,-0.00011696,0.,
 -0.00001303,0.00004950,0.,-0.00001340,0.00002520,0.,0.00000652,-0.0000
 0830,0.,0.00263893,0.00107120,0.,0.00005340,0.00011504,0.,-0.00142706,
 -0.00290920,0.,-0.00397196,0.00172741,0.,-0.15562253,-0.00471826,0.,-0
 .03159090,-0.03443448,0.,-0.04133731,0.04271875,0.,-0.32392695,-0.0328
 3779,0.,-0.01539489,-0.00033992,0.,-0.05334373,-0.07222246,0.,0.002200
 17,0.01267114,0.,0.78869269,-0.00010563,0.00077385,0.,0.00024928,0.000
 05666,0.,-0.00191611,0.00082161,0.,0.00095831,0.00098967,0.,0.00046052
 ,0.00045978,0.,-0.00091716,-0.00291606,0.,-0.00048277,-0.00140817,0.,-
 0.00002375,-0.00041923,0.,-0.00011518,-0.00038036,0.,0.00007493,0.0000
 6044,0.,0.00004528,-0.00013355,0.,-0.00002006,-0.00003036,0.,0.0011326
 1,0.00000264,0.,-0.00010051,0.00006752,0.,-0.00040481,-0.00009553,0.,0
 .00708207,0.00259552,0.,-0.04233810,-0.22937930,0.,-0.02886915,-0.0163
 2343,0.,0.03585726,0.02543098,0.,0.00765529,-0.14491866,0.,-0.03724857
 ,0.00108298,0.,-0.04306721,-0.00550818,0.,0.00865871,0.00168042,0.,-0.
 10570226,0.76138120,0.,0.,-0.00000449,0.,0.,0.00001546,0.,0.,-0.000011
 09,0.,0.,-0.00006303,0.,0.,0.00011104,0.,0.,-0.00027431,0.,0.,0.000028
 67,0.,0.,0.00001721,0.,0.,0.00001126,0.,0.,-0.00001148,0.,0.,-0.000004
 12,0.,0.,-0.00000417,0.,0.,0.00001577,0.,0.,-0.00001913,0.,0.,0.000007
 00,0.,0.,0.00409394,0.,0.,-0.05797847,0.,0.,-0.00375498,0.,0.,0.007089
 65,0.,0.,-0.03588839,0.,0.,0.00224713,0.,0.,0.01949568,0.,0.,0.0001866
 8,0.,0.,0.05370188,-0.00111282,0.00184663,0.,0.00263170,0.00016507,0.,
 -0.01222923,0.00013775,0.,0.00227546,0.00207891,0.,0.00067655,0.000821
 54,0.,0.00405582,-0.01675051,0.,-0.00035516,-0.00288408,0.,-0.00003078
 ,-0.00089522,0.,0.00005657,-0.00057796,0.,0.00005484,0.00008419,0.,-0.
 00000394,-0.00008451,0.,-0.00003963,-0.00004313,0.,0.00648591,0.002935
 75,0.,0.00039704,0.00041554,0.,-0.00321208,-0.00806708,0.,-0.12397296,
 -0.09077613,0.,-0.17995993,0.03055460,0.,-0.24705760,-0.02431611,0.,-0
 .02286819,-0.03083752,0.,-0.02973581,0.00466043,0.,0.00126723,0.000098
 85,0.,-0.07156567,0.05891124,0.,-0.06691705,0.04859059,0.,0.04126568,0
 .01402565,0.,0.69969913,-0.00012408,0.00249678,0.,0.00137214,-0.000540
 96,0.,-0.00816781,0.00087213,0.,0.00793603,-0.00539389,0.,-0.00133902,
 -0.00021115,0.,-0.01407748,-0.02172569,0.,-0.00422360,-0.00257855,0.,-
 0.00046980,-0.00093983,0.,-0.00058417,-0.00113891,0.,0.00023035,0.0000
 7266,0.,0.00004405,-0.00039555,0.,-0.00009836,-0.00008176,0.,0.0022742
 0,0.00013882,0.,-0.00001674,0.00023256,0.,0.00034665,0.00019339,0.,-0.
 09476656,-0.27102179,0.,0.06115719,-0.24055753,0.,-0.04918031,-0.15907
 043,0.,-0.03764788,0.01561276,0.,0.02039597,-0.00491230,0.,-0.00065178
 ,0.00023348,0.,0.03256781,0.01322598,0.,0.06861189,0.00464053,0.,0.006
 42655,-0.06564732,0.,0.01746023,0.74852820,0.,0.,0.00000385,0.,0.,-0.0
 0046108,0.,0.,-0.00046871,0.,0.,0.00016054,0.,0.,-0.00015914,0.,0.,0.0
 0680695,0.,0.,-0.00036467,0.,0.,-0.00004568,0.,0.,0.00003067,0.,0.,-0.
 00003072,0.,0.,0.00005270,0.,0.,0.00000888,0.,0.,0.00105048,0.,0.,-0.0
 0008700,0.,0.,-0.00108719,0.,0.,-0.02887899,0.,0.,-0.05582179,0.,0.,-0
 .04969298,0.,0.,0.00832905,0.,0.,0.00071361,0.,0.,-0.00084179,0.,0.,0.
 01895432,0.,0.,0.01663296,0.,0.,0.00868315,0.,0.,0.07009665,-0.0000359
 0,-0.00005642,0.,0.00005897,0.00000873,0.,-0.00011099,-0.00003870,0.,-
 0.00015604,-0.00003849,0.,-0.00001860,-0.00001882,0.,0.00016546,0.0001
 6622,0.,0.00008428,0.00009442,0.,0.00000443,0.00003299,0.,0.00002362,0
 .00004591,0.,-0.00000962,-0.00000530,0.,0.00000224,0.00002104,0.,0.000
 00367,0.00000359,0.,0.00013665,0.00025663,0.,0.00006232,0.00002733,0.,
 -0.00016791,-0.00060778,0.,-0.00003614,-0.00024795,0.,-0.00061547,0.00
 025257,0.,-0.01624698,-0.01190409,0.,-0.22302795,-0.00776668,0.,-0.023
 60747,0.00412437,0.,0.00172546,-0.00178242,0.,-0.00004669,-0.00007029,
 0.,-0.00099081,0.00511407,0.,0.00248253,-0.00014751,0.,0.00204399,0.00
 034913,0.,0.49384001,0.00000246,0.00005320,0.,0.00002274,-0.00001823,0
 .,-0.00016129,0.00006031,0.,0.00025748,-0.00006956,0.,-0.00002089,-0.0
 0000855,0.,-0.00019137,-0.00048082,0.,-0.00010532,-0.00006576,0.,-0.00
 000981,-0.00002445,0.,-0.00001414,-0.00002978,0.,0.00000552,0.00000045
 ,0.,-0.00000300,-0.00001330,0.,-0.00000313,-0.00000231,0.,0.00005150,-
 0.00002148,0.,-0.00001482,-0.00000071,0.,-0.00000426,0.00005955,0.,-0.
 00106184,0.00139266,0.,0.00001417,-0.00516872,0.,-0.03042116,0.0007242
 2,0.,-0.01262266,-0.08903447,0.,0.02463426,0.00632625,0.,0.00137677,0.
 00078014,0.,0.00080365,0.00135637,0.,-0.00196963,0.00139953,0.,0.00483
 264,-0.00239126,0.,-0.00431194,-0.00665336,0.,0.00188884,0.59024681,0.
 ,0.,0.00000212,0.,0.,0.00000331,0.,0.,0.00001706,0.,0.,0.00000314,0.,0
 .,-0.00000640,0.,0.,-0.00001752,0.,0.,-0.00000267,0.,0.,-0.00000882,0.
 ,0.,-0.00000259,0.,0.,0.00000343,0.,0.,0.00000061,0.,0.,0.00000126,0.,
 0.,-0.00006915,0.,0.,0.00003625,0.,0.,0.00003252,0.,0.,0.00017389,0.,0
 .,-0.00040504,0.,0.,0.00118315,0.,0.,-0.06426058,0.,0.,-0.00136449,0.,
 0.,-0.00610833,0.,0.,-0.00049388,0.,0.,-0.00251237,0.,0.,0.01000545,0.
 ,0.,0.00290969,0.,0.,0.54559195,-0.00002431,0.00003560,-0.00000226,0.0
 0003425,0.00001243,-0.00000283,-0.00018138,0.00002850,-0.00001197,-0.0
 0000980,0.00006823,-0.00000197,0.00002629,0.00002149,-0.00000304,0.000
 02841,-0.00013408,0.00002329,0.00000908,-0.00006600,0.00000247,0.00000
 634,-0.00001781,0.00000411,0.00000437,-0.00001233,0.00000212,0.0000002
 4,0.00000226,-0.00000225,-0.00000260,-0.00000168,-0.00000037,-0.000000
 36,-0.00000089,-0.00000060,0.00012181,0.00002812,0.00003864,-0.0000046
 4,0.00000064,-0.00001429,-0.00003111,-0.00006057,-0.00003239,0.0000878
 3,0.00014188,-0.00003793,0.00066269,0.00196587,-0.00026732,-0.00110221
 ,0.00351527,-0.00015871,-0.01776662,0.01633817,-0.02523129,-0.00116632
 ,-0.00290450,-0.00180687,-0.00011179,0.00007470,-0.00089498,-0.0006964
 4,-0.00050517,-0.00003638,0.00182258,-0.00157860,0.00053379,-0.0024222
 2,-0.00013485,0.00183926,0.00061671,-0.00035260,0.00050820,-0.08193754
 ,0.04423132,-0.08087388,0.09377773,-0.00003444,-0.00000567,0.00000083,
 0.00004863,0.00001861,0.00000006,-0.00017313,-0.00000617,0.00000152,-0
 .00007684,0.00001620,0.00000094,0.00000384,-0.00000043,0.00000129,0.00
 009805,-0.00000166,-0.00000130,0.00004962,0.00000733,-0.00000184,0.000
 01083,0.00000629,-0.00000057,0.00001734,0.00001358,-0.00000094,-0.0000
 0529,-0.00000170,0.00000094,-0.00000597,0.00000966,0.00000018,0.000001
 20,0.00000133,0.00000028,0.00014977,0.00008330,0.00000131,0.00000162,-
 0.00000079,-0.00000431,-0.00009316,-0.00018792,0.00000853,-0.00002586,
 -0.00009351,-0.00001707,0.00002709,0.00080468,-0.00009324,-0.00160534,
 0.00017186,-0.00059763,0.00231398,0.00127493,-0.00320782,0.00027754,0.
 00047502,0.00031286,-0.00009063,0.00015897,0.00027251,-0.00014811,-0.0
 0017429,-0.00001941,0.00063329,0.00005503,0.00030799,-0.00034370,-0.00
 046394,-0.00015617,0.00084644,-0.00008237,0.00029251,0.04289981,-0.102
 95305,0.09891980,-0.05060335,0.10648579,-0.00001982,0.00001929,-0.0000
 0090,0.00002895,0.00001340,-0.00000089,-0.00013575,0.00001712,-0.00000
 468,-0.00000986,0.00002594,-0.00000079,0.00000819,0.00000417,-0.000000
 50,0.00003593,-0.00006840,0.00000575,0.00001513,-0.00002880,0.00000120
 ,0.00000827,-0.00000731,0.00000224,0.00000758,-0.00000499,0.00000094,-
 0.00000110,0.00000085,-0.00000109,-0.00000614,0.00000223,-0.00000021,-
 0.00000037,-0.00000006,-0.00000036,0.00010529,0.00002764,0.00002002,-0
 .00001542,-0.00000210,-0.00000845,-0.00004718,-0.00005461,-0.00001934,
 -0.00001589,0.00007250,-0.00000600,0.00011361,0.00053734,-0.00007470,-
 0.00115788,0.00210893,0.00052004,-0.00058926,-0.00224693,0.00421451,0.
 00089697,-0.00061302,0.00009056,0.00003821,-0.00004041,0.00018917,-0.0
 0008219,-0.00013241,0.00005960,0.00145913,-0.00060916,0.00019860,-0.00
 025565,-0.00033888,-0.00044626,0.00033859,-0.00045669,-0.00016288,-0.0
 8014062,0.09871791,-0.21916518,0.08709843,-0.10822321,0.23549184,-0.00
 002431,0.00003560,0.00000226,0.00003425,0.00001243,0.00000283,-0.00018
 138,0.00002850,0.00001197,-0.00000980,0.00006823,0.00000197,0.00002629
 ,0.00002149,0.00000304,0.00002841,-0.00013408,-0.00002329,0.00000908,-
 0.00006600,-0.00000247,0.00000634,-0.00001781,-0.00000411,0.00000437,-
 0.00001233,-0.00000212,0.00000024,0.00000226,0.00000225,-0.00000260,-0
 .00000168,0.00000037,-0.00000036,-0.00000089,0.00000060,0.00012181,0.0
 0002812,-0.00003864,-0.00000464,0.00000064,0.00001429,-0.00003111,-0.0
 0006057,0.00003239,0.00008783,0.00014188,0.00003793,0.00066269,0.00196
 587,0.00026732,-0.00110221,0.00351527,0.00015871,-0.01776662,0.0163381
 7,0.02523129,-0.00116632,-0.00290450,0.00180687,-0.00011179,0.00007470
 ,0.00089498,-0.00069644,-0.00050517,0.00003638,0.00182258,-0.00157860,
 -0.00053379,-0.00242222,-0.00013485,-0.00183926,0.00061671,-0.00035260
 ,-0.00050820,-0.08193754,0.04423132,0.08087388,0.00496375,-0.00610276,
 -0.00960394,0.09377773,-0.00003444,-0.00000567,-0.00000083,0.00004863,
 0.00001861,-0.00000006,-0.00017313,-0.00000617,-0.00000152,-0.00007684
 ,0.00001620,-0.00000094,0.00000384,-0.00000043,-0.00000129,0.00009805,
 -0.00000166,0.00000130,0.00004962,0.00000733,0.00000184,0.00001083,0.0
 0000629,0.00000057,0.00001734,0.00001358,0.00000094,-0.00000529,-0.000
 00170,-0.00000094,-0.00000597,0.00000966,-0.00000018,0.00000120,0.0000
 0133,-0.00000028,0.00014977,0.00008330,-0.00000131,0.00000162,-0.00000
 079,0.00000431,-0.00009316,-0.00018792,-0.00000853,-0.00002586,-0.0000
 9351,0.00001707,0.00002709,0.00080468,0.00009324,-0.00160534,0.0001718
 6,0.00059763,0.00231398,0.00127493,0.00320782,0.00027754,0.00047502,-0
 .00031286,-0.00009063,0.00015897,-0.00027251,-0.00014811,-0.00017429,0
 .00001941,0.00063329,0.00005503,-0.00030799,-0.00034370,-0.00046394,0.
 00015617,0.00084644,-0.00008238,-0.00029251,0.04289981,-0.10295305,-0.
 09891980,-0.00610276,0.00687340,0.01279443,-0.05060335,0.10648579,0.00
 001982,-0.00001929,-0.00000090,-0.00002895,-0.00001340,-0.00000089,0.0
 0013575,-0.00001712,-0.00000468,0.00000986,-0.00002594,-0.00000079,-0.
 00000819,-0.00000417,-0.00000050,-0.00003593,0.00006840,0.00000575,-0.
 00001513,0.00002880,0.00000120,-0.00000827,0.00000731,0.00000224,-0.00
 000758,0.00000499,0.00000094,0.00000110,-0.00000085,-0.00000109,0.0000
 0614,-0.00000223,-0.00000021,0.00000037,0.00000006,-0.00000036,-0.0001
 0529,-0.00002764,0.00002002,0.00001542,0.00000210,-0.00000845,0.000047
 18,0.00005461,-0.00001934,0.00001589,-0.00007250,-0.00000600,-0.000113
 61,-0.00053734,-0.00007470,0.00115788,-0.00210893,0.00052004,0.0005892
 6,0.00224693,0.00421451,-0.00089697,0.00061302,0.00009056,-0.00003821,
 0.00004041,0.00018917,0.00008219,0.00013241,0.00005960,-0.00145913,0.0
 0060916,0.00019860,0.00025565,0.00033888,-0.00044626,-0.00033859,0.000
 45669,-0.00016288,0.08014062,-0.09871791,-0.21916518,0.00960394,-0.012
 79443,-0.02246379,-0.08709843,0.10822321,0.23549184,-0.00000396,0.0000
 4650,0.,0.00001582,-0.00000104,0.,-0.00012549,0.00004517,0.,0.00010843
 ,0.00001810,0.,0.00000955,0.00001061,0.,-0.00007205,-0.00025105,0.,-0.
 00004586,-0.00007184,0.,-0.00000232,-0.00002306,0.,-0.00000777,-0.0000
 2419,0.,0.00000434,0.00000249,0.,-0.00000083,-0.00000872,0.,-0.0000017
 9,-0.00000182,0.,0.00005658,-0.00003234,0.,-0.00001748,-0.00000321,0.,
 -0.00000136,0.00007257,0.,-0.00027595,0.00061054,0.,0.00063443,-0.0004
 6899,0.,-0.00628887,0.00249879,0.,-0.01017578,-0.03279010,0.,0.0022705
 7,-0.00183714,0.,-0.00022435,0.00107092,0.,-0.00023715,0.00018385,0.,0
 .00105805,0.00030182,0.,-0.00024648,0.00021806,0.,-0.00085135,-0.00235
 103,0.,-0.07172603,-0.07257756,0.,0.00354471,0.01192933,0.00187239,0.0
 0354471,0.01192933,-0.00187239,0.07901516,0.00003765,0.00003275,0.,-0.
 00004912,-0.00001873,0.,0.00014526,0.00003564,0.,0.00011490,0.00001492
 ,0.,0.00000882,0.00001170,0.,-0.00012148,-0.00007303,0.,-0.00006810,-0
 .00005022,0.,-0.00001331,-0.00002078,0.,-0.00002420,-0.00002836,0.,0.0
 0000891,0.00000448,0.,0.00000871,-0.00001447,0.,-0.00000205,-0.0000024
 8,0.,-0.00013823,-0.00009621,0.,-0.00000686,0.00000321,0.,0.00008557,0
 .00020131,0.,0.00010016,0.00025217,0.,0.00057545,0.00005766,0.,0.00128
 338,-0.00042280,0.,0.00085275,0.00018833,0.,0.00210398,0.00028825,0.,-
 0.00053926,0.00048161,0.,-0.00028022,0.00001226,0.,-0.00130533,0.00024
 421,0.,-0.00087075,0.00033332,0.,-0.00045564,-0.00005605,0.,-0.0754143
 0,-0.29307367,0.,-0.00378569,-0.01246517,-0.00146001,-0.00378569,-0.01
 246517,0.00146001,0.08156318,0.31670961,0.,0.,0.00000030,0.,0.,-0.0000
 0136,0.,0.,-0.00000247,0.,0.,0.00000024,0.,0.,0.00000071,0.,0.,0.00001
 003,0.,0.,-0.00000161,0.,0.,0.00000042,0.,0.,-0.00000044,0.,0.,0.00000
 045,0.,0.,0.00000016,0.,0.,0.00000016,0.,0.,0.00001970,0.,0.,-0.000008
 39,0.,0.,-0.00001725,0.,0.,-0.00007845,0.,0.,-0.00002892,0.,0.,0.00105
 395,0.,0.,-0.00162944,0.,0.,0.00002349,0.,0.,0.00024013,0.,0.,0.000022
 11,0.,0.,0.00040560,0.,0.,-0.00027706,0.,0.,0.00017515,0.,0.,-0.048599
 85,0.00919847,0.02488768,0.00159840,-0.00919847,-0.02488768,0.00159840
 ,0.,0.,0.04549594,0.00003478,0.00003313,0.,-0.00003364,-0.00002766,0.,
 0.00006629,0.00007374,0.,0.00023731,-0.00008673,0.,-0.00001562,-0.0000
 1352,0.,-0.00033639,-0.00025309,0.,-0.00012625,-0.00004186,0.,-0.00002
 118,-0.00001658,0.,-0.00002801,-0.00002825,0.,0.00001093,0.00000017,0.
 ,0.00000983,-0.00001816,0.,-0.00000244,-0.00000230,0.,-0.00008678,-0.0
 0007213,0.,-0.00001312,-0.00000211,0.,0.00004586,0.00018591,0.,0.00121
 862,0.00016266,0.,0.02040369,-0.01270860,0.,-0.00081723,0.00025930,0.,
 -0.00439441,-0.00463446,0.,-0.01400655,0.02887943,0.,0.00080510,-0.000
 30540,0.,-0.00284840,0.00283687,0.,0.00050220,-0.00053360,0.,-0.205346
 88,0.18531047,0.,-0.00223116,-0.00476834,0.,0.00003805,0.00114013,0.,-
 0.00024942,0.00000019,0.00005436,-0.00024942,0.00000019,-0.00005436,0.
 00004252,-0.00002850,0.,0.20739173,-0.00004536,-0.00000439,0.,0.000085
 40,0.00000577,0.,-0.00029546,-0.00000489,0.,0.00011395,-0.00022984,0.,
 -0.00009361,-0.00005242,0.,-0.00018006,-0.00026259,0.,-0.00002231,0.00
 006267,0.,0.00000733,0.00001786,0.,0.00001956,0.00001846,0.,-0.0000095
 0,-0.00000604,0.,-0.00001699,0.00001488,0.,0.00000004,0.00000206,0.,0.
 00020026,0.00013266,0.,0.00001353,0.00000153,0.,-0.00013667,-0.0002859
 2,0.,0.00152907,0.00005304,0.,0.02630412,-0.02145061,0.,-0.00229342,-0
 .00217110,0.,-0.00281709,0.00236078,0.,-0.00438508,0.01101933,0.,-0.00
 039044,0.00063286,0.,-0.00064894,0.00501909,0.,0.00009069,0.00131931,0
 .,0.18334500,-0.32525732,0.,-0.00448002,-0.00515746,0.,-0.00008673,0.0
 0056304,0.,-0.00020362,-0.00001931,-0.00005477,-0.00020362,-0.00001931
 ,0.00005477,-0.00005916,-0.00008429,0.,-0.19534089,0.33378218,0.,0.,0.
 00001148,0.,0.,0.00000831,0.,0.,0.00002433,0.,0.,0.00000357,0.,0.,0.00
 001470,0.,0.,-0.00009253,0.,0.,-0.00002012,0.,0.,-0.00001245,0.,0.,-0.
 00001091,0.,0.,0.00001186,0.,0.,0.00000157,0.,0.,0.00000271,0.,0.,-0.0
 0004211,0.,0.,0.00001901,0.,0.,0.00002756,0.,0.,0.00091266,0.,0.,-0.00
 091653,0.,0.,-0.00075169,0.,0.,0.00282163,0.,0.,-0.00735442,0.,0.,-0.0
 0140369,0.,0.,-0.00380390,0.,0.,-0.00033911,0.,0.,-0.00652672,0.,0.,0.
 00365682,0.,0.,0.00221821,0.00052662,0.00010869,-0.00003688,-0.0005266
 2,-0.00010869,-0.00003688,0.,0.,-0.00000008,0.,0.,0.01161360\\-0.00000
 553,0.00001745,0.,0.00001266,0.00000272,0.,0.00003074,0.00000609,0.,-0
 .00007989,-0.00003190,0.,0.00003521,0.00001479,0.,-0.00002329,0.000026
 00,0.,0.00000920,0.00002189,0.,0.00002910,-0.00002301,0.,-0.00002953,-
 0.00000153,0.,0.00000171,0.00000132,0.,0.00000867,-0.00000587,0.,0.000
 00505,-0.00000038,0.,-0.00005963,0.00000692,0.,0.00002684,0.00000964,0
 .,0.00000854,-0.00002140,0.,0.00002886,0.00000294,0.,0.00001854,0.0000
 1834,0.,-0.00005389,-0.00007655,0.,0.00003947,0.00004025,0.,-0.0000026
 9,-0.00000549,0.,0.00000280,-0.00000019,0.,-0.00000484,-0.00000510,0.,
 0.00000042,0.00007050,0.,-0.00000970,-0.00001090,0.,0.00002361,-0.0000
 3664,0.,-0.00000593,-0.00001261,0.,-0.00000103,0.00000012,-0.00000048,
 -0.00000103,0.00000012,0.00000048,0.00000127,-0.00000104,0.,-0.0000057
 3,-0.00000647,0.\\\@


 YOU CANNOT THROW TO THE GROUND THE LETTERS OF
 THE GREEK ALPHABET AND PICK UP THE ILIAD.
        - RUFUS CHOATE, 1799-1859
 Job cpu time:       0 days  0 hours 35 minutes 43.6 seconds.
 Elapsed time:       0 days  0 hours  2 minutes 18.0 seconds.
 File lengths (MBytes):  RWF=    385 Int=      0 D2E=      0 Chk=     16 Scr=      1
 Normal termination of Gaussian 16 at Sat Aug 10 23:05:59 2019.
