 Entering Gaussian System, Link 0=/software/sse/easybuild/prefix/software/Gaussian/16.B.01-avx2-nsc1-bdist/g16/g16.orig
 Input=freq-lm.wrap
 Output=freq-lm.log
 Initial command:
 /software/sse/easybuild/prefix/software/Gaussian/16.B.01-avx2-nsc1-bdist/g16/l1.exe "/scratch/local/Gau-10139.inp" -scrdir="/scratch/local/"
 Default is to use a total of  16 processors:
                               16 via shared-memory
                                1 via Linda
 Entering Link 1 = /software/sse/easybuild/prefix/software/Gaussian/16.B.01-avx2-nsc1-bdist/g16/l1.exe PID=     10149.
  
 Copyright (c) 1988-2017, Gaussian, Inc.  All Rights Reserved.
  
 This is part of the Gaussian(R) 16 program.  It is based on
 the Gaussian(R) 09 system (copyright 2009, Gaussian, Inc.),
 the Gaussian(R) 03 system (copyright 2003, Gaussian, Inc.),
 the Gaussian(R) 98 system (copyright 1998, Gaussian, Inc.),
 the Gaussian(R) 94 system (copyright 1995, Gaussian, Inc.),
 the Gaussian 92(TM) system (copyright 1992, Gaussian, Inc.),
 the Gaussian 90(TM) system (copyright 1990, Gaussian, Inc.),
 the Gaussian 88(TM) system (copyright 1988, Gaussian, Inc.),
 the Gaussian 86(TM) system (copyright 1986, Carnegie Mellon
 University), and the Gaussian 82(TM) system (copyright 1983,
 Carnegie Mellon University). Gaussian is a federally registered
 trademark of Gaussian, Inc.
  
 This software contains proprietary and confidential information,
 including trade secrets, belonging to Gaussian, Inc.
  
 This software is provided under written license and may be
 used, copied, transmitted, or stored only in accord with that
 written license.
  
 The following legend is applicable only to US Government
 contracts under FAR:
  
                    RESTRICTED RIGHTS LEGEND
  
 Use, reproduction and disclosure by the US Government is
 subject to restrictions as set forth in subparagraphs (a)
 and (c) of the Commercial Computer Software - Restricted
 Rights clause in FAR 52.227-19.
  
 Gaussian, Inc.
 340 Quinnipiac St., Bldg. 40, Wallingford CT 06492
  
  
 ---------------------------------------------------------------
 Warning -- This program may not be used in any manner that
 competes with the business of Gaussian, Inc. or will provide
 assistance to any competitor of Gaussian, Inc.  The licensee
 of this program is prohibited from giving any competitor of
 Gaussian, Inc. access to this program.  By using this program,
 the user acknowledges that Gaussian, Inc. is engaged in the
 business of creating and licensing software in the field of
 computational chemistry and represents and warrants to the
 licensee that it is not a competitor of Gaussian, Inc. and that
 it will not use this program in any manner prohibited above.
 ---------------------------------------------------------------
  

 Cite this work as:
 Gaussian 16, Revision B.01,
 M. J. Frisch, G. W. Trucks, H. B. Schlegel, G. E. Scuseria, 
 M. A. Robb, J. R. Cheeseman, G. Scalmani, V. Barone, 
 G. A. Petersson, H. Nakatsuji, X. Li, M. Caricato, A. V. Marenich, 
 J. Bloino, B. G. Janesko, R. Gomperts, B. Mennucci, H. P. Hratchian, 
 J. V. Ortiz, A. F. Izmaylov, J. L. Sonnenberg, D. Williams-Young, 
 F. Ding, F. Lipparini, F. Egidi, J. Goings, B. Peng, A. Petrone, 
 T. Henderson, D. Ranasinghe, V. G. Zakrzewski, J. Gao, N. Rega, 
 G. Zheng, W. Liang, M. Hada, M. Ehara, K. Toyota, R. Fukuda, 
 J. Hasegawa, M. Ishida, T. Nakajima, Y. Honda, O. Kitao, H. Nakai, 
 T. Vreven, K. Throssell, J. A. Montgomery, Jr., J. E. Peralta, 
 F. Ogliaro, M. J. Bearpark, J. J. Heyd, E. N. Brothers, K. N. Kudin, 
 V. N. Staroverov, T. A. Keith, R. Kobayashi, J. Normand, 
 K. Raghavachari, A. P. Rendell, J. C. Burant, S. S. Iyengar, 
 J. Tomasi, M. Cossi, J. M. Millam, M. Klene, C. Adamo, R. Cammi, 
 J. W. Ochterski, R. L. Martin, K. Morokuma, O. Farkas, 
 J. B. Foresman, and D. J. Fox, Gaussian, Inc., Wallingford CT, 2016.
 
 ******************************************
 Gaussian 16:  ES64L-G16RevB.01 20-Dec-2017
                10-Aug-2019 
 ******************************************
 %chk=freq.chk
 ----------------------------------------------------------------------
 # freq(intmodes) iop(1/33=3) b3lyp/6-31g(d,p) geom=connectivity iop(7/
 75=-1)
 ----------------------------------------------------------------------
 1/10=4,18=20,30=1,33=3,38=1,57=2/1,3;
 2/9=110,12=2,17=6,18=5,40=1/2;
 3/5=1,6=6,7=101,11=2,25=1,30=1,71=2,74=-5,140=1/1,2,3;
 4//1;
 5/5=2,38=5,98=1/2;
 8/6=4,10=90,11=11/1;
 11/6=1,8=1,9=11,15=111,16=1/1,2,10;
 10/6=1/2;
 6/7=2,8=2,9=2,10=2,28=1/1;
 7/8=21,10=1,25=1,75=-1/1,2,3,16;
 1/10=4,18=20,30=1,33=3/3;
 99//99;
 ONIOM results not found on unit 2.
 ----
 name
 ----
 TstMul:  ICh=     0
 TstMul:  Mul=     1
 TstMul:  ICh=     0
 TstMul:  Mul=     1
 Symbolic Z-matrix:
 Charge =  0 Multiplicity = 1
 C                    -1.27046   0.7335    0.22908 
 C                     0.        1.467    -0.22908 
 C                     1.27046   0.7335    0.22908 
 C                     1.27046  -0.7335   -0.22908 
 C                     0.       -1.467     0.22908 
 C                    -1.27046  -0.7335   -0.22908 
 H                     2.16302   1.24882  -0.14603 
 H                     0.        1.53532  -1.32654 
 H                     0.        2.49764   0.14603 
 H                    -1.32962   0.76766   1.32654 
 H                    -2.16302   1.24882  -0.14603 
 H                     1.32962  -0.76766  -1.32654 
 H                     2.16302  -1.24882   0.14603 
 H                     0.       -2.49764  -0.14603 
 H                     0.       -1.53532   1.32654 
 H                    -1.32962  -0.76766  -1.32654 
 H                    -2.16302  -1.24882   0.14603 
 H                     1.32962   0.76766   1.32654 
 
 RdStrC is calling ZToCFu for IStruc=1 NZ=    18.
                                ZToCFu                                
 ---------------------------------------------------------------------
 Center     Atomic      Atomic             Coordinates (Angstroms)
 Number     Number       Type             X           Y           Z
 ---------------------------------------------------------------------
      1          6           0       -1.270461    0.733501    0.229078
      2          6           0        0.000000    1.467002   -0.229078
      3          6           0        1.270461    0.733501    0.229078
      4          6           0        1.270461   -0.733501   -0.229078
      5          6           0        0.000000   -1.467002    0.229078
      6          6           0       -1.270461   -0.733501   -0.229078
      7          1           0        2.163017    1.248818   -0.146026
      8          1           0        0.000000    1.535317   -1.326539
      9          1           0        0.000000    2.497637    0.146026
     10          1           0       -1.329623    0.767658    1.326539
     11          1           0       -2.163017    1.248818   -0.146026
     12          1           0        1.329623   -0.767658   -1.326539
     13          1           0        2.163017   -1.248818    0.146026
     14          1           0        0.000000   -2.497637   -0.146026
     15          1           0        0.000000   -1.535317    1.326539
     16          1           0       -1.329623   -0.767658   -1.326539
     17          1           0       -2.163017   -1.248818    0.146026
     18          1           0        1.329623    0.767658    1.326539
 ---------------------------------------------------------------------
 Connectivity in DoCon:
 I=     1 IAn=  6 IBond, RBType=     2  1.00     6  1.00    10  1.00    11  1.00
 I=     2 IAn=  6 IBond, RBType=     1  1.00     3  1.00     8  1.00     9  1.00
 I=     3 IAn=  6 IBond, RBType=     2  1.00     4  1.00     7  1.00    18  1.00
 I=     4 IAn=  6 IBond, RBType=     3  1.00     5  1.00    12  1.00    13  1.00
 I=     5 IAn=  6 IBond, RBType=     4  1.00     6  1.00    14  1.00    15  1.00
 I=     6 IAn=  6 IBond, RBType=     1  1.00     5  1.00    16  1.00    17  1.00
 I=     7 IAn=  1 IBond, RBType=     3  1.00
 I=     8 IAn=  1 IBond, RBType=     2  1.00
 I=     9 IAn=  1 IBond, RBType=     2  1.00
 I=    10 IAn=  1 IBond, RBType=     1  1.00
 I=    11 IAn=  1 IBond, RBType=     1  1.00
 I=    12 IAn=  1 IBond, RBType=     4  1.00
 I=    13 IAn=  1 IBond, RBType=     4  1.00
 I=    14 IAn=  1 IBond, RBType=     5  1.00
 I=    15 IAn=  1 IBond, RBType=     5  1.00
 I=    16 IAn=  1 IBond, RBType=     6  1.00
 I=    17 IAn=  1 IBond, RBType=     6  1.00
 I=    18 IAn=  1 IBond, RBType=     3  1.00
 After GenITR:
 ITRead=  0  0  0  0  0  0  0  0  0  0  0  0  0  0  0  0  0  0
 MicOpt= -1 -1 -1 -1 -1 -1 -1 -1 -1 -1 -1 -1 -1 -1 -1 -1 -1 -1
 List IsCon N=     18 M=      2:
 I=      1 Vals=      2      1 |      6      1 |     10      1 |     11      1 |
 I=      2 Vals=      1      1 |      3      1 |      8      1 |      9      1 |
 I=      3 Vals=      2      1 |      4      1 |      7      1 |     18      1 |
 I=      4 Vals=      3      1 |      5      1 |     12      1 |     13      1 |
 I=      5 Vals=      4      1 |      6      1 |     14      1 |     15      1 |
 I=      6 Vals=      1      1 |      5      1 |     16      1 |     17      1 |
 I=      7 Vals=      3      1 |
 I=      8 Vals=      2      1 |
 I=      9 Vals=      2      1 |
 I=     10 Vals=      1      1 |
 I=     11 Vals=      1      1 |
 I=     12 Vals=      4      1 |
 I=     13 Vals=      4      1 |
 I=     14 Vals=      5      1 |
 I=     15 Vals=      5      1 |
 I=     16 Vals=      6      1 |
 I=     17 Vals=      6      1 |
 I=     18 Vals=      3      1 |
 Coordinate R1 contains atom 1 which is already in QM block.
 Coordinate R1 contains atom 2 which is already in QM block.
 Coordinate R2 contains atom 1 which is already in QM block.
 Coordinate R2 contains atom 6 which is already in QM block.
 Coordinate R3 contains atom 1 which is already in QM block.
 Coordinate R3 contains atom 10 which is already in QM block.
 Coordinate R4 contains atom 1 which is already in QM block.
 Coordinate R4 contains atom 11 which is already in QM block.
 Coordinate R5 contains atom 2 which is already in QM block.
 Coordinate R5 contains atom 3 which is already in QM block.
 Coordinate R6 contains atom 2 which is already in QM block.
 Coordinate R6 contains atom 8 which is already in QM block.
 Coordinate R7 contains atom 2 which is already in QM block.
 Coordinate R7 contains atom 9 which is already in QM block.
 Coordinate R8 contains atom 3 which is already in QM block.
 Coordinate R8 contains atom 4 which is already in QM block.
 Coordinate R9 contains atom 3 which is already in QM block.
 Coordinate R9 contains atom 7 which is already in QM block.
 Coordinate R10 contains atom 3 which is already in QM block.
 Coordinate R10 contains atom 18 which is already in QM block.
 Coordinate R11 contains atom 4 which is already in QM block.
 Coordinate R11 contains atom 5 which is already in QM block.
 Coordinate R12 contains atom 4 which is already in QM block.
 Coordinate R12 contains atom 12 which is already in QM block.
 Coordinate R13 contains atom 4 which is already in QM block.
 Coordinate R13 contains atom 13 which is already in QM block.
 Coordinate R14 contains atom 5 which is already in QM block.
 Coordinate R14 contains atom 6 which is already in QM block.
 Coordinate R15 contains atom 5 which is already in QM block.
 Coordinate R15 contains atom 14 which is already in QM block.
 Coordinate R16 contains atom 5 which is already in QM block.
 Coordinate R16 contains atom 15 which is already in QM block.
 Coordinate R17 contains atom 6 which is already in QM block.
 Coordinate R17 contains atom 16 which is already in QM block.
 Coordinate R18 contains atom 6 which is already in QM block.
 Coordinate R18 contains atom 17 which is already in QM block.
 Coordinate A1 contains atom 2 which is already in QM block.
 Coordinate A1 contains atom 1 which is already in QM block.
 Coordinate A1 contains atom 1 which is already in QM block.
 Coordinate A2 contains atom 2 which is already in QM block.
 Coordinate A2 contains atom 1 which is already in QM block.
 Coordinate A2 contains atom 1 which is already in QM block.
 Coordinate A3 contains atom 2 which is already in QM block.
 Coordinate A3 contains atom 1 which is already in QM block.
 Coordinate A3 contains atom 1 which is already in QM block.
 Coordinate A4 contains atom 6 which is already in QM block.
 Coordinate A4 contains atom 1 which is already in QM block.
 Coordinate A4 contains atom 1 which is already in QM block.
 Coordinate A5 contains atom 6 which is already in QM block.
 Coordinate A5 contains atom 1 which is already in QM block.
 Coordinate A5 contains atom 1 which is already in QM block.
 Coordinate A6 contains atom 10 which is already in QM block.
 Coordinate A6 contains atom 1 which is already in QM block.
 Coordinate A6 contains atom 1 which is already in QM block.
 Coordinate A7 contains atom 1 which is already in QM block.
 Coordinate A7 contains atom 2 which is already in QM block.
 Coordinate A7 contains atom 2 which is already in QM block.
 Coordinate A8 contains atom 1 which is already in QM block.
 Coordinate A8 contains atom 2 which is already in QM block.
 Coordinate A8 contains atom 2 which is already in QM block.
 Coordinate A9 contains atom 1 which is already in QM block.
 Coordinate A9 contains atom 2 which is already in QM block.
 Coordinate A9 contains atom 2 which is already in QM block.
 Coordinate A10 contains atom 3 which is already in QM block.
 Coordinate A10 contains atom 2 which is already in QM block.
 Coordinate A10 contains atom 2 which is already in QM block.
 Coordinate A11 contains atom 3 which is already in QM block.
 Coordinate A11 contains atom 2 which is already in QM block.
 Coordinate A11 contains atom 2 which is already in QM block.
 Coordinate A12 contains atom 8 which is already in QM block.
 Coordinate A12 contains atom 2 which is already in QM block.
 Coordinate A12 contains atom 2 which is already in QM block.
 Coordinate A13 contains atom 2 which is already in QM block.
 Coordinate A13 contains atom 3 which is already in QM block.
 Coordinate A13 contains atom 3 which is already in QM block.
 Coordinate A14 contains atom 2 which is already in QM block.
 Coordinate A14 contains atom 3 which is already in QM block.
 Coordinate A14 contains atom 3 which is already in QM block.
 Coordinate A15 contains atom 2 which is already in QM block.
 Coordinate A15 contains atom 3 which is already in QM block.
 Coordinate A15 contains atom 3 which is already in QM block.
 Coordinate A16 contains atom 4 which is already in QM block.
 Coordinate A16 contains atom 3 which is already in QM block.
 Coordinate A16 contains atom 3 which is already in QM block.
 Coordinate A17 contains atom 4 which is already in QM block.
 Coordinate A17 contains atom 3 which is already in QM block.
 Coordinate A17 contains atom 3 which is already in QM block.
 Coordinate A18 contains atom 7 which is already in QM block.
 Coordinate A18 contains atom 3 which is already in QM block.
 Coordinate A18 contains atom 3 which is already in QM block.
 Coordinate A19 contains atom 3 which is already in QM block.
 Coordinate A19 contains atom 4 which is already in QM block.
 Coordinate A19 contains atom 4 which is already in QM block.
 Coordinate A20 contains atom 3 which is already in QM block.
 Coordinate A20 contains atom 4 which is already in QM block.
 Coordinate A20 contains atom 4 which is already in QM block.
 Coordinate A21 contains atom 3 which is already in QM block.
 Coordinate A21 contains atom 4 which is already in QM block.
 Coordinate A21 contains atom 4 which is already in QM block.
 Coordinate A22 contains atom 5 which is already in QM block.
 Coordinate A22 contains atom 4 which is already in QM block.
 Coordinate A22 contains atom 4 which is already in QM block.
 Coordinate A23 contains atom 5 which is already in QM block.
 Coordinate A23 contains atom 4 which is already in QM block.
 Coordinate A23 contains atom 4 which is already in QM block.
 Coordinate A24 contains atom 12 which is already in QM block.
 Coordinate A24 contains atom 4 which is already in QM block.
 Coordinate A24 contains atom 4 which is already in QM block.
 Coordinate A25 contains atom 4 which is already in QM block.
 Coordinate A25 contains atom 5 which is already in QM block.
 Coordinate A25 contains atom 5 which is already in QM block.
 Coordinate A26 contains atom 4 which is already in QM block.
 Coordinate A26 contains atom 5 which is already in QM block.
 Coordinate A26 contains atom 5 which is already in QM block.
 Coordinate A27 contains atom 4 which is already in QM block.
 Coordinate A27 contains atom 5 which is already in QM block.
 Coordinate A27 contains atom 5 which is already in QM block.
 Coordinate A28 contains atom 6 which is already in QM block.
 Coordinate A28 contains atom 5 which is already in QM block.
 Coordinate A28 contains atom 5 which is already in QM block.
 Coordinate A29 contains atom 6 which is already in QM block.
 Coordinate A29 contains atom 5 which is already in QM block.
 Coordinate A29 contains atom 5 which is already in QM block.
 Coordinate A30 contains atom 14 which is already in QM block.
 Coordinate A30 contains atom 5 which is already in QM block.
 Coordinate A30 contains atom 5 which is already in QM block.
 Coordinate A31 contains atom 1 which is already in QM block.
 Coordinate A31 contains atom 6 which is already in QM block.
 Coordinate A31 contains atom 6 which is already in QM block.
 Coordinate A32 contains atom 1 which is already in QM block.
 Coordinate A32 contains atom 6 which is already in QM block.
 Coordinate A32 contains atom 6 which is already in QM block.
 Coordinate A33 contains atom 1 which is already in QM block.
 Coordinate A33 contains atom 6 which is already in QM block.
 Coordinate A33 contains atom 6 which is already in QM block.
 Coordinate A34 contains atom 5 which is already in QM block.
 Coordinate A34 contains atom 6 which is already in QM block.
 Coordinate A34 contains atom 6 which is already in QM block.
 Coordinate A35 contains atom 5 which is already in QM block.
 Coordinate A35 contains atom 6 which is already in QM block.
 Coordinate A35 contains atom 6 which is already in QM block.
 Coordinate A36 contains atom 16 which is already in QM block.
 Coordinate A36 contains atom 6 which is already in QM block.
 Coordinate A36 contains atom 6 which is already in QM block.
 Coordinate D1 contains atom 6 which is already in QM block.
 Coordinate D1 contains atom 1 which is already in QM block.
 Coordinate D1 contains atom 2 which is already in QM block.
 Coordinate D1 contains atom 3 which is already in QM block.
 Coordinate D2 contains atom 6 which is already in QM block.
 Coordinate D2 contains atom 1 which is already in QM block.
 Coordinate D2 contains atom 2 which is already in QM block.
 Coordinate D2 contains atom 8 which is already in QM block.
 Coordinate D3 contains atom 6 which is already in QM block.
 Coordinate D3 contains atom 1 which is already in QM block.
 Coordinate D3 contains atom 2 which is already in QM block.
 Coordinate D3 contains atom 9 which is already in QM block.
 Coordinate D4 contains atom 10 which is already in QM block.
 Coordinate D4 contains atom 1 which is already in QM block.
 Coordinate D4 contains atom 2 which is already in QM block.
 Coordinate D4 contains atom 3 which is already in QM block.
 Coordinate D5 contains atom 10 which is already in QM block.
 Coordinate D5 contains atom 1 which is already in QM block.
 Coordinate D5 contains atom 2 which is already in QM block.
 Coordinate D5 contains atom 8 which is already in QM block.
 Coordinate D6 contains atom 10 which is already in QM block.
 Coordinate D6 contains atom 1 which is already in QM block.
 Coordinate D6 contains atom 2 which is already in QM block.
 Coordinate D6 contains atom 9 which is already in QM block.
 Coordinate D7 contains atom 11 which is already in QM block.
 Coordinate D7 contains atom 1 which is already in QM block.
 Coordinate D7 contains atom 2 which is already in QM block.
 Coordinate D7 contains atom 3 which is already in QM block.
 Coordinate D8 contains atom 11 which is already in QM block.
 Coordinate D8 contains atom 1 which is already in QM block.
 Coordinate D8 contains atom 2 which is already in QM block.
 Coordinate D8 contains atom 8 which is already in QM block.
 Coordinate D9 contains atom 11 which is already in QM block.
 Coordinate D9 contains atom 1 which is already in QM block.
 Coordinate D9 contains atom 2 which is already in QM block.
 Coordinate D9 contains atom 9 which is already in QM block.
 Coordinate D10 contains atom 2 which is already in QM block.
 Coordinate D10 contains atom 1 which is already in QM block.
 Coordinate D10 contains atom 6 which is already in QM block.
 Coordinate D10 contains atom 5 which is already in QM block.
 Coordinate D11 contains atom 2 which is already in QM block.
 Coordinate D11 contains atom 1 which is already in QM block.
 Coordinate D11 contains atom 6 which is already in QM block.
 Coordinate D11 contains atom 16 which is already in QM block.
 Coordinate D12 contains atom 2 which is already in QM block.
 Coordinate D12 contains atom 1 which is already in QM block.
 Coordinate D12 contains atom 6 which is already in QM block.
 Coordinate D12 contains atom 17 which is already in QM block.
 Coordinate D13 contains atom 10 which is already in QM block.
 Coordinate D13 contains atom 1 which is already in QM block.
 Coordinate D13 contains atom 6 which is already in QM block.
 Coordinate D13 contains atom 5 which is already in QM block.
 Coordinate D14 contains atom 10 which is already in QM block.
 Coordinate D14 contains atom 1 which is already in QM block.
 Coordinate D14 contains atom 6 which is already in QM block.
 Coordinate D14 contains atom 16 which is already in QM block.
 Coordinate D15 contains atom 10 which is already in QM block.
 Coordinate D15 contains atom 1 which is already in QM block.
 Coordinate D15 contains atom 6 which is already in QM block.
 Coordinate D15 contains atom 17 which is already in QM block.
 Coordinate D16 contains atom 11 which is already in QM block.
 Coordinate D16 contains atom 1 which is already in QM block.
 Coordinate D16 contains atom 6 which is already in QM block.
 Coordinate D16 contains atom 5 which is already in QM block.
 Coordinate D17 contains atom 11 which is already in QM block.
 Coordinate D17 contains atom 1 which is already in QM block.
 Coordinate D17 contains atom 6 which is already in QM block.
 Coordinate D17 contains atom 16 which is already in QM block.
 Coordinate D18 contains atom 11 which is already in QM block.
 Coordinate D18 contains atom 1 which is already in QM block.
 Coordinate D18 contains atom 6 which is already in QM block.
 Coordinate D18 contains atom 17 which is already in QM block.
 Coordinate D19 contains atom 1 which is already in QM block.
 Coordinate D19 contains atom 2 which is already in QM block.
 Coordinate D19 contains atom 3 which is already in QM block.
 Coordinate D19 contains atom 4 which is already in QM block.
 Coordinate D20 contains atom 1 which is already in QM block.
 Coordinate D20 contains atom 2 which is already in QM block.
 Coordinate D20 contains atom 3 which is already in QM block.
 Coordinate D20 contains atom 7 which is already in QM block.
 Coordinate D21 contains atom 1 which is already in QM block.
 Coordinate D21 contains atom 2 which is already in QM block.
 Coordinate D21 contains atom 3 which is already in QM block.
 Coordinate D21 contains atom 18 which is already in QM block.
 Coordinate D22 contains atom 8 which is already in QM block.
 Coordinate D22 contains atom 2 which is already in QM block.
 Coordinate D22 contains atom 3 which is already in QM block.
 Coordinate D22 contains atom 4 which is already in QM block.
 Coordinate D23 contains atom 8 which is already in QM block.
 Coordinate D23 contains atom 2 which is already in QM block.
 Coordinate D23 contains atom 3 which is already in QM block.
 Coordinate D23 contains atom 7 which is already in QM block.
 Coordinate D24 contains atom 8 which is already in QM block.
 Coordinate D24 contains atom 2 which is already in QM block.
 Coordinate D24 contains atom 3 which is already in QM block.
 Coordinate D24 contains atom 18 which is already in QM block.
 Coordinate D25 contains atom 9 which is already in QM block.
 Coordinate D25 contains atom 2 which is already in QM block.
 Coordinate D25 contains atom 3 which is already in QM block.
 Coordinate D25 contains atom 4 which is already in QM block.
 Coordinate D26 contains atom 9 which is already in QM block.
 Coordinate D26 contains atom 2 which is already in QM block.
 Coordinate D26 contains atom 3 which is already in QM block.
 Coordinate D26 contains atom 7 which is already in QM block.
 Coordinate D27 contains atom 9 which is already in QM block.
 Coordinate D27 contains atom 2 which is already in QM block.
 Coordinate D27 contains atom 3 which is already in QM block.
 Coordinate D27 contains atom 18 which is already in QM block.
 Coordinate D28 contains atom 2 which is already in QM block.
 Coordinate D28 contains atom 3 which is already in QM block.
 Coordinate D28 contains atom 4 which is already in QM block.
 Coordinate D28 contains atom 5 which is already in QM block.
 Coordinate D29 contains atom 2 which is already in QM block.
 Coordinate D29 contains atom 3 which is already in QM block.
 Coordinate D29 contains atom 4 which is already in QM block.
 Coordinate D29 contains atom 12 which is already in QM block.
 Coordinate D30 contains atom 2 which is already in QM block.
 Coordinate D30 contains atom 3 which is already in QM block.
 Coordinate D30 contains atom 4 which is already in QM block.
 Coordinate D30 contains atom 13 which is already in QM block.
 Coordinate D31 contains atom 7 which is already in QM block.
 Coordinate D31 contains atom 3 which is already in QM block.
 Coordinate D31 contains atom 4 which is already in QM block.
 Coordinate D31 contains atom 5 which is already in QM block.
 Coordinate D32 contains atom 7 which is already in QM block.
 Coordinate D32 contains atom 3 which is already in QM block.
 Coordinate D32 contains atom 4 which is already in QM block.
 Coordinate D32 contains atom 12 which is already in QM block.
 Coordinate D33 contains atom 7 which is already in QM block.
 Coordinate D33 contains atom 3 which is already in QM block.
 Coordinate D33 contains atom 4 which is already in QM block.
 Coordinate D33 contains atom 13 which is already in QM block.
 Coordinate D34 contains atom 18 which is already in QM block.
 Coordinate D34 contains atom 3 which is already in QM block.
 Coordinate D34 contains atom 4 which is already in QM block.
 Coordinate D34 contains atom 5 which is already in QM block.
 Coordinate D35 contains atom 18 which is already in QM block.
 Coordinate D35 contains atom 3 which is already in QM block.
 Coordinate D35 contains atom 4 which is already in QM block.
 Coordinate D35 contains atom 12 which is already in QM block.
 Coordinate D36 contains atom 18 which is already in QM block.
 Coordinate D36 contains atom 3 which is already in QM block.
 Coordinate D36 contains atom 4 which is already in QM block.
 Coordinate D36 contains atom 13 which is already in QM block.
 Coordinate D37 contains atom 3 which is already in QM block.
 Coordinate D37 contains atom 4 which is already in QM block.
 Coordinate D37 contains atom 5 which is already in QM block.
 Coordinate D37 contains atom 6 which is already in QM block.
 Coordinate D38 contains atom 3 which is already in QM block.
 Coordinate D38 contains atom 4 which is already in QM block.
 Coordinate D38 contains atom 5 which is already in QM block.
 Coordinate D38 contains atom 14 which is already in QM block.
 Coordinate D39 contains atom 3 which is already in QM block.
 Coordinate D39 contains atom 4 which is already in QM block.
 Coordinate D39 contains atom 5 which is already in QM block.
 Coordinate D39 contains atom 15 which is already in QM block.
 Coordinate D40 contains atom 12 which is already in QM block.
 Coordinate D40 contains atom 4 which is already in QM block.
 Coordinate D40 contains atom 5 which is already in QM block.
 Coordinate D40 contains atom 6 which is already in QM block.
 Coordinate D41 contains atom 12 which is already in QM block.
 Coordinate D41 contains atom 4 which is already in QM block.
 Coordinate D41 contains atom 5 which is already in QM block.
 Coordinate D41 contains atom 14 which is already in QM block.
 Coordinate D42 contains atom 12 which is already in QM block.
 Coordinate D42 contains atom 4 which is already in QM block.
 Coordinate D42 contains atom 5 which is already in QM block.
 Coordinate D42 contains atom 15 which is already in QM block.
 Coordinate D43 contains atom 13 which is already in QM block.
 Coordinate D43 contains atom 4 which is already in QM block.
 Coordinate D43 contains atom 5 which is already in QM block.
 Coordinate D43 contains atom 6 which is already in QM block.
 Coordinate D44 contains atom 13 which is already in QM block.
 Coordinate D44 contains atom 4 which is already in QM block.
 Coordinate D44 contains atom 5 which is already in QM block.
 Coordinate D44 contains atom 14 which is already in QM block.
 Coordinate D45 contains atom 13 which is already in QM block.
 Coordinate D45 contains atom 4 which is already in QM block.
 Coordinate D45 contains atom 5 which is already in QM block.
 Coordinate D45 contains atom 15 which is already in QM block.
 Coordinate D46 contains atom 4 which is already in QM block.
 Coordinate D46 contains atom 5 which is already in QM block.
 Coordinate D46 contains atom 6 which is already in QM block.
 Coordinate D46 contains atom 1 which is already in QM block.
 Coordinate D47 contains atom 4 which is already in QM block.
 Coordinate D47 contains atom 5 which is already in QM block.
 Coordinate D47 contains atom 6 which is already in QM block.
 Coordinate D47 contains atom 16 which is already in QM block.
 Coordinate D48 contains atom 4 which is already in QM block.
 Coordinate D48 contains atom 5 which is already in QM block.
 Coordinate D48 contains atom 6 which is already in QM block.
 Coordinate D48 contains atom 17 which is already in QM block.
 Coordinate D49 contains atom 14 which is already in QM block.
 Coordinate D49 contains atom 5 which is already in QM block.
 Coordinate D49 contains atom 6 which is already in QM block.
 Coordinate D49 contains atom 1 which is already in QM block.
 Coordinate D50 contains atom 14 which is already in QM block.
 Coordinate D50 contains atom 5 which is already in QM block.
 Coordinate D50 contains atom 6 which is already in QM block.
 Coordinate D50 contains atom 16 which is already in QM block.
 Coordinate D51 contains atom 14 which is already in QM block.
 Coordinate D51 contains atom 5 which is already in QM block.
 Coordinate D51 contains atom 6 which is already in QM block.
 Coordinate D51 contains atom 17 which is already in QM block.
 Coordinate D52 contains atom 15 which is already in QM block.
 Coordinate D52 contains atom 5 which is already in QM block.
 Coordinate D52 contains atom 6 which is already in QM block.
 Coordinate D52 contains atom 1 which is already in QM block.
 Coordinate D53 contains atom 15 which is already in QM block.
 Coordinate D53 contains atom 5 which is already in QM block.
 Coordinate D53 contains atom 6 which is already in QM block.
 Coordinate D53 contains atom 16 which is already in QM block.
 Coordinate D54 contains atom 15 which is already in QM block.
 Coordinate D54 contains atom 5 which is already in QM block.
 Coordinate D54 contains atom 6 which is already in QM block.
 Coordinate D54 contains atom 17 which is already in QM block.
 Saved connectivity
 I=     1 IAn=  6 IBond, RBType=     2  1.00     6  1.00    10  1.00    11  1.00
 I=     2 IAn=  6 IBond, RBType=     1  1.00     3  1.00     8  1.00     9  1.00
 I=     3 IAn=  6 IBond, RBType=     2  1.00     4  1.00     7  1.00    18  1.00
 I=     4 IAn=  6 IBond, RBType=     3  1.00     5  1.00    12  1.00    13  1.00
 I=     5 IAn=  6 IBond, RBType=     4  1.00     6  1.00    14  1.00    15  1.00
 I=     6 IAn=  6 IBond, RBType=     1  1.00     5  1.00    16  1.00    17  1.00
 I=     7 IAn=  1 IBond, RBType=     3  1.00
 I=     8 IAn=  1 IBond, RBType=     2  1.00
 I=     9 IAn=  1 IBond, RBType=     2  1.00
 I=    10 IAn=  1 IBond, RBType=     1  1.00
 I=    11 IAn=  1 IBond, RBType=     1  1.00
 I=    12 IAn=  1 IBond, RBType=     4  1.00
 I=    13 IAn=  1 IBond, RBType=     4  1.00
 I=    14 IAn=  1 IBond, RBType=     5  1.00
 I=    15 IAn=  1 IBond, RBType=     5  1.00
 I=    16 IAn=  1 IBond, RBType=     6  1.00
 I=    17 IAn=  1 IBond, RBType=     6  1.00
 I=    18 IAn=  1 IBond, RBType=     3  1.00
 ITRead=  0  0  0  0  0  0  0  0  0  0  0  0  0  0  0  0  0  0
 MicOpt= -1 -1 -1 -1 -1 -1 -1 -1 -1 -1 -1 -1 -1 -1 -1 -1 -1 -1
 NAtoms=     18 NQM=       18 NQMF=       0 NMMI=      0 NMMIF=      0
                NMic=       0 NMicF=      0.
 No MM parameters found.
 Leave Link  101 at Sat Aug 10 16:33:46 2019, MaxMem=  4294967296 cpu:               4.8 elap:               0.5

 GradGradGradGradGradGradGradGradGradGradGradGradGradGradGradGradGradGrad
 Berny optimization.
 GetPCM: File not found, return IValue=0.
 Optmz: redundant internal coordinate code flag= 1
 Initialization pass.
                           ----------------------------
                           !    Initial Parameters    !
                           ! (Angstroms and Degrees)  !
 --------------------------                            --------------------------
 ! Name  Definition              Value          Derivative Info.                !
 --------------------------------------------------------------------------------
 ! R1    R(1,2)                  1.5369         calculate D2E/DX2 analytically  !
 ! R2    R(1,6)                  1.5369         calculate D2E/DX2 analytically  !
 ! R3    R(1,10)                 1.0996         calculate D2E/DX2 analytically  !
 ! R4    R(1,11)                 1.0968         calculate D2E/DX2 analytically  !
 ! R5    R(2,3)                  1.5369         calculate D2E/DX2 analytically  !
 ! R6    R(2,8)                  1.0996         calculate D2E/DX2 analytically  !
 ! R7    R(2,9)                  1.0968         calculate D2E/DX2 analytically  !
 ! R8    R(3,4)                  1.5369         calculate D2E/DX2 analytically  !
 ! R9    R(3,7)                  1.0968         calculate D2E/DX2 analytically  !
 ! R10   R(3,18)                 1.0996         calculate D2E/DX2 analytically  !
 ! R11   R(4,5)                  1.5369         calculate D2E/DX2 analytically  !
 ! R12   R(4,12)                 1.0996         calculate D2E/DX2 analytically  !
 ! R13   R(4,13)                 1.0968         calculate D2E/DX2 analytically  !
 ! R14   R(5,6)                  1.5369         calculate D2E/DX2 analytically  !
 ! R15   R(5,14)                 1.0968         calculate D2E/DX2 analytically  !
 ! R16   R(5,15)                 1.0996         calculate D2E/DX2 analytically  !
 ! R17   R(6,16)                 1.0996         calculate D2E/DX2 analytically  !
 ! R18   R(6,17)                 1.0968         calculate D2E/DX2 analytically  !
 ! A1    A(2,1,6)              111.5121         calculate D2E/DX2 analytically  !
 ! A2    A(2,1,10)             109.0979         calculate D2E/DX2 analytically  !
 ! A3    A(2,1,11)             110.2753         calculate D2E/DX2 analytically  !
 ! A4    A(6,1,10)             109.0979         calculate D2E/DX2 analytically  !
 ! A5    A(6,1,11)             110.2753         calculate D2E/DX2 analytically  !
 ! A6    A(10,1,11)            106.4373         calculate D2E/DX2 analytically  !
 ! A7    A(1,2,3)              111.5121         calculate D2E/DX2 analytically  !
 ! A8    A(1,2,8)              109.0979         calculate D2E/DX2 analytically  !
 ! A9    A(1,2,9)              110.2753         calculate D2E/DX2 analytically  !
 ! A10   A(3,2,8)              109.0979         calculate D2E/DX2 analytically  !
 ! A11   A(3,2,9)              110.2753         calculate D2E/DX2 analytically  !
 ! A12   A(8,2,9)              106.4372         calculate D2E/DX2 analytically  !
 ! A13   A(2,3,4)              111.5121         calculate D2E/DX2 analytically  !
 ! A14   A(2,3,7)              110.2753         calculate D2E/DX2 analytically  !
 ! A15   A(2,3,18)             109.0979         calculate D2E/DX2 analytically  !
 ! A16   A(4,3,7)              110.2753         calculate D2E/DX2 analytically  !
 ! A17   A(4,3,18)             109.0979         calculate D2E/DX2 analytically  !
 ! A18   A(7,3,18)             106.4373         calculate D2E/DX2 analytically  !
 ! A19   A(3,4,5)              111.5121         calculate D2E/DX2 analytically  !
 ! A20   A(3,4,12)             109.0979         calculate D2E/DX2 analytically  !
 ! A21   A(3,4,13)             110.2753         calculate D2E/DX2 analytically  !
 ! A22   A(5,4,12)             109.0979         calculate D2E/DX2 analytically  !
 ! A23   A(5,4,13)             110.2753         calculate D2E/DX2 analytically  !
 ! A24   A(12,4,13)            106.4373         calculate D2E/DX2 analytically  !
 ! A25   A(4,5,6)              111.5121         calculate D2E/DX2 analytically  !
 ! A26   A(4,5,14)             110.2753         calculate D2E/DX2 analytically  !
 ! A27   A(4,5,15)             109.0979         calculate D2E/DX2 analytically  !
 ! A28   A(6,5,14)             110.2753         calculate D2E/DX2 analytically  !
 ! A29   A(6,5,15)             109.0979         calculate D2E/DX2 analytically  !
 ! A30   A(14,5,15)            106.4372         calculate D2E/DX2 analytically  !
 ! A31   A(1,6,5)              111.5121         calculate D2E/DX2 analytically  !
 ! A32   A(1,6,16)             109.0979         calculate D2E/DX2 analytically  !
 ! A33   A(1,6,17)             110.2753         calculate D2E/DX2 analytically  !
 ! A34   A(5,6,16)             109.0979         calculate D2E/DX2 analytically  !
 ! A35   A(5,6,17)             110.2753         calculate D2E/DX2 analytically  !
 ! A36   A(16,6,17)            106.4373         calculate D2E/DX2 analytically  !
 ! D1    D(6,1,2,3)            -54.618          calculate D2E/DX2 analytically  !
 ! D2    D(6,1,2,8)             65.9551         calculate D2E/DX2 analytically  !
 ! D3    D(6,1,2,9)           -177.485          calculate D2E/DX2 analytically  !
 ! D4    D(10,1,2,3)            65.955          calculate D2E/DX2 analytically  !
 ! D5    D(10,1,2,8)          -173.4719         calculate D2E/DX2 analytically  !
 ! D6    D(10,1,2,9)           -56.9119         calculate D2E/DX2 analytically  !
 ! D7    D(11,1,2,3)          -177.485          calculate D2E/DX2 analytically  !
 ! D8    D(11,1,2,8)           -56.9119         calculate D2E/DX2 analytically  !
 ! D9    D(11,1,2,9)            59.6481         calculate D2E/DX2 analytically  !
 ! D10   D(2,1,6,5)             54.618          calculate D2E/DX2 analytically  !
 ! D11   D(2,1,6,16)           -65.955          calculate D2E/DX2 analytically  !
 ! D12   D(2,1,6,17)           177.485          calculate D2E/DX2 analytically  !
 ! D13   D(10,1,6,5)           -65.955          calculate D2E/DX2 analytically  !
 ! D14   D(10,1,6,16)          173.4719         calculate D2E/DX2 analytically  !
 ! D15   D(10,1,6,17)           56.9119         calculate D2E/DX2 analytically  !
 ! D16   D(11,1,6,5)           177.485          calculate D2E/DX2 analytically  !
 ! D17   D(11,1,6,16)           56.9119         calculate D2E/DX2 analytically  !
 ! D18   D(11,1,6,17)          -59.6481         calculate D2E/DX2 analytically  !
 ! D19   D(1,2,3,4)             54.618          calculate D2E/DX2 analytically  !
 ! D20   D(1,2,3,7)            177.485          calculate D2E/DX2 analytically  !
 ! D21   D(1,2,3,18)           -65.955          calculate D2E/DX2 analytically  !
 ! D22   D(8,2,3,4)            -65.9551         calculate D2E/DX2 analytically  !
 ! D23   D(8,2,3,7)             56.9119         calculate D2E/DX2 analytically  !
 ! D24   D(8,2,3,18)           173.4719         calculate D2E/DX2 analytically  !
 ! D25   D(9,2,3,4)            177.485          calculate D2E/DX2 analytically  !
 ! D26   D(9,2,3,7)            -59.6481         calculate D2E/DX2 analytically  !
 ! D27   D(9,2,3,18)            56.9119         calculate D2E/DX2 analytically  !
 ! D28   D(2,3,4,5)            -54.618          calculate D2E/DX2 analytically  !
 ! D29   D(2,3,4,12)            65.955          calculate D2E/DX2 analytically  !
 ! D30   D(2,3,4,13)          -177.485          calculate D2E/DX2 analytically  !
 ! D31   D(7,3,4,5)           -177.485          calculate D2E/DX2 analytically  !
 ! D32   D(7,3,4,12)           -56.9119         calculate D2E/DX2 analytically  !
 ! D33   D(7,3,4,13)            59.6481         calculate D2E/DX2 analytically  !
 ! D34   D(18,3,4,5)            65.955          calculate D2E/DX2 analytically  !
 ! D35   D(18,3,4,12)         -173.4719         calculate D2E/DX2 analytically  !
 ! D36   D(18,3,4,13)          -56.9119         calculate D2E/DX2 analytically  !
 ! D37   D(3,4,5,6)             54.618          calculate D2E/DX2 analytically  !
 ! D38   D(3,4,5,14)           177.485          calculate D2E/DX2 analytically  !
 ! D39   D(3,4,5,15)           -65.9551         calculate D2E/DX2 analytically  !
 ! D40   D(12,4,5,6)           -65.955          calculate D2E/DX2 analytically  !
 ! D41   D(12,4,5,14)           56.9119         calculate D2E/DX2 analytically  !
 ! D42   D(12,4,5,15)          173.4719         calculate D2E/DX2 analytically  !
 ! D43   D(13,4,5,6)           177.485          calculate D2E/DX2 analytically  !
 ! D44   D(13,4,5,14)          -59.6481         calculate D2E/DX2 analytically  !
 ! D45   D(13,4,5,15)           56.9119         calculate D2E/DX2 analytically  !
 ! D46   D(4,5,6,1)            -54.618          calculate D2E/DX2 analytically  !
 ! D47   D(4,5,6,16)            65.955          calculate D2E/DX2 analytically  !
 ! D48   D(4,5,6,17)          -177.485          calculate D2E/DX2 analytically  !
 ! D49   D(14,5,6,1)          -177.485          calculate D2E/DX2 analytically  !
 ! D50   D(14,5,6,16)          -56.9119         calculate D2E/DX2 analytically  !
 ! D51   D(14,5,6,17)           59.6481         calculate D2E/DX2 analytically  !
 ! D52   D(15,5,6,1)            65.9551         calculate D2E/DX2 analytically  !
 ! D53   D(15,5,6,16)         -173.4719         calculate D2E/DX2 analytically  !
 ! D54   D(15,5,6,17)          -56.9119         calculate D2E/DX2 analytically  !
 --------------------------------------------------------------------------------
 Maximum allowed force set to 1.00D+20.
 Trust Radius=3.00D-01 FncErr=1.00D-07 GrdErr=1.00D-07 EigMax=2.50D+02 EigMin=1.00D-04
 Number of steps in this run=      2 maximum allowed number of steps=      2.
 GradGradGradGradGradGradGradGradGradGradGradGradGradGradGradGradGradGrad

 Leave Link  103 at Sat Aug 10 16:33:47 2019, MaxMem=  4294967296 cpu:               0.6 elap:               0.2
                          Input orientation:                          
 ---------------------------------------------------------------------
 Center     Atomic      Atomic             Coordinates (Angstroms)
 Number     Number       Type             X           Y           Z
 ---------------------------------------------------------------------
      1          6           0       -1.270461    0.733501    0.229078
      2          6           0        0.000000    1.467002   -0.229078
      3          6           0        1.270461    0.733501    0.229078
      4          6           0        1.270461   -0.733501   -0.229078
      5          6           0        0.000000   -1.467002    0.229078
      6          6           0       -1.270461   -0.733501   -0.229078
      7          1           0        2.163017    1.248818   -0.146026
      8          1           0        0.000000    1.535317   -1.326539
      9          1           0        0.000000    2.497637    0.146026
     10          1           0       -1.329623    0.767658    1.326539
     11          1           0       -2.163017    1.248818   -0.146026
     12          1           0        1.329623   -0.767658   -1.326539
     13          1           0        2.163017   -1.248818    0.146026
     14          1           0        0.000000   -2.497637   -0.146026
     15          1           0        0.000000   -1.535317    1.326539
     16          1           0       -1.329623   -0.767658   -1.326539
     17          1           0       -2.163017   -1.248818    0.146026
     18          1           0        1.329623    0.767658    1.326539
 ---------------------------------------------------------------------
                    Distance matrix (angstroms):
                    1          2          3          4          5
     1  C    0.000000
     2  C    1.536881   0.000000
     3  C    2.540922   1.536881   0.000000
     4  C    2.969560   2.540922   1.536881   0.000000
     5  C    2.540922   2.969560   2.540922   1.536881   0.000000
     6  C    1.536881   2.540922   2.969560   2.540922   1.536881
     7  H    3.492138   2.175579   1.096773   2.175579   3.492137
     8  H    2.162620   1.099585   2.162620   2.822415   3.381400
     9  H    2.175579   1.096773   2.175579   3.492138   3.965509
    10  H    1.099585   2.162620   2.822415   3.381399   2.822414
    11  H    1.096773   2.175579   3.492138   3.965508   3.492137
    12  H    3.381399   2.822414   2.162619   1.099585   2.162620
    13  H    3.965508   3.492137   2.175579   1.096773   2.175579
    14  H    3.492138   3.965509   3.492138   2.175579   1.096773
    15  H    2.822415   3.381400   2.822415   2.162620   1.099585
    16  H    2.162619   2.822414   3.381399   2.822415   2.162620
    17  H    2.175579   3.492137   3.965508   3.492138   2.175579
    18  H    2.822415   2.162620   1.099585   2.162619   2.822414
                    6          7          8          9         10
     6  C    0.000000
     7  H    3.965508   0.000000
     8  H    2.822415   2.480793   0.000000
     9  H    3.492138   2.514654   1.759121   0.000000
    10  H    2.162619   3.820798   3.065293   2.480793   0.000000
    11  H    2.175579   4.326034   2.480793   2.514654   1.759121
    12  H    2.822415   2.480793   2.659246   3.820798   4.058030
    13  H    3.492138   2.514653   3.820798   4.326034   4.202180
    14  H    2.175579   4.326034   4.202181   5.003804   3.820798
    15  H    2.162620   3.820798   4.058031   4.202181   2.659246
    16  H    1.099585   4.202180   2.659246   3.820798   3.065292
    17  H    1.096773   5.003804   3.820798   4.326034   2.480793
    18  H    3.381399   1.759121   3.065293   2.480793   2.659246
                   11         12         13         14         15
    11  H    0.000000
    12  H    4.202180   0.000000
    13  H    5.003804   1.759121   0.000000
    14  H    4.326034   2.480793   2.514654   0.000000
    15  H    3.820798   3.065293   2.480793   1.759121   0.000000
    16  H    2.480793   2.659246   3.820798   2.480793   3.065293
    17  H    2.514653   3.820798   4.326034   2.514654   2.480793
    18  H    3.820798   3.065292   2.480793   3.820798   2.659246
                   16         17         18
    16  H    0.000000
    17  H    1.759121   0.000000
    18  H    4.058030   4.202180   0.000000
 Stoichiometry    C6H12
 Framework group  S6[X(C6H12)]
 Deg. of freedom     8
 Full point group                 S6      NOp   6
 Largest Abelian subgroup         CI      NOp   2
 Largest concise Abelian subgroup CI      NOp   2
                         Standard orientation:                         
 ---------------------------------------------------------------------
 Center     Atomic      Atomic             Coordinates (Angstroms)
 Number     Number       Type             X           Y           Z
 ---------------------------------------------------------------------
      1          6           0       -1.270461    0.733501    0.229078
      2          6           0       -0.000000    1.467002   -0.229078
      3          6           0        1.270461    0.733501    0.229078
      4          6           0        1.270461   -0.733501   -0.229078
      5          6           0        0.000000   -1.467002    0.229078
      6          6           0       -1.270461   -0.733501   -0.229078
      7          1           0        2.163017    1.248818   -0.146026
      8          1           0        0.000000    1.535317   -1.326539
      9          1           0        0.000000    2.497637    0.146026
     10          1           0       -1.329624    0.767659    1.326539
     11          1           0       -2.163017    1.248819   -0.146026
     12          1           0        1.329624   -0.767659   -1.326539
     13          1           0        2.163017   -1.248819    0.146026
     14          1           0       -0.000000   -2.497637   -0.146026
     15          1           0       -0.000000   -1.535317    1.326539
     16          1           0       -1.329624   -0.767658   -1.326539
     17          1           0       -2.163017   -1.248818    0.146026
     18          1           0        1.329624    0.767658    1.326539
 ---------------------------------------------------------------------
 Rotational constants (GHZ):           4.2824565           4.2824565           2.4423092
 Standard basis: 6-31G(d,p) (6D, 7F)
 There are    75 symmetry adapted cartesian basis functions of AG  symmetry.
 There are    75 symmetry adapted cartesian basis functions of AU  symmetry.
 There are    75 symmetry adapted basis functions of AG  symmetry.
 There are    75 symmetry adapted basis functions of AU  symmetry.
   150 basis functions,   252 primitive gaussians,   150 cartesian basis functions
    24 alpha electrons       24 beta electrons
       nuclear repulsion energy       254.9931797783 Hartrees.
 NAtoms=   18 NActive=   18 NUniq=    3 SFac= 4.00D+00 NAtFMM=   60 NAOKFM=F Big=F
 Integral buffers will be    131072 words long.
 Raffenetti 2 integral format.
 Two-electron integral symmetry is turned on.
 One-electron integrals computed using PRISM.
 NBasis=   150 RedAO= T EigKep=  4.65D-03  NBF=    75    75
 NBsUse=   150 1.00D-06 EigRej= -1.00D+00 NBFU=    75    75
 ExpMin= 1.61D-01 ExpMax= 3.05D+03 ExpMxC= 4.57D+02 IAcc=3 IRadAn=         5 AccDes= 0.00D+00
 Harris functional with IExCor=  402 and IRadAn=       5 diagonalized for initial guess.
 HarFok:  IExCor=  402 AccDes= 0.00D+00 IRadAn=         5 IDoV= 1 UseB2=F ITyADJ=14
 ICtDFT=  3500011 ScaDFX=  1.000000  1.000000  1.000000  1.000000
 FoFCou: FMM=F IPFlag=           0 FMFlag=      100000 FMFlg1=           0
         NFxFlg=           0 DoJE=T BraDBF=F KetDBF=T FulRan=T
         wScrn=  0.000000 ICntrl=       500 IOpCl=  0 I1Cent=   200000004 NGrid=           0
         NMat0=    1 NMatS0=      1 NMatT0=    0 NMatD0=    1 NMtDS0=    0 NMtDT0=    0
 Petite list used in FoFCou.
 Initial guess orbital symmetries:
       Occupied  (AG) (EU) (EU) (EG) (EG) (AU) (AG) (EU) (EU) (EG)
                 (EG) (AU) (AG) (AU) (EG) (EG) (AU) (EU) (EU) (EU)
                 (EU) (EG) (EG) (AG)
       Virtual   (AG) (AU) (EU) (EU) (EG) (EG) (EU) (EU) (AU) (AG)
                 (EG) (EG) (EG) (EG) (AU) (AG) (EU) (EU) (AU) (AU)
                 (AG) (EG) (EG) (EU) (EU) (EG) (EG) (AU) (EU) (EU)
                 (AG) (AG) (EG) (EG) (AG) (EU) (EU) (AU) (EG) (EG)
                 (EU) (EU) (AU) (EG) (EG) (AG) (AG) (EU) (EU) (EU)
                 (EU) (EU) (EU) (AG) (AU) (EG) (EG) (AU) (AG) (EG)
                 (EG) (AU) (EG) (EG) (EU) (EU) (AU) (EU) (EU) (AG)
                 (AU) (EG) (EG) (EG) (EG) (AG) (EU) (EU) (AU) (EG)
                 (EG) (AG) (EU) (EU) (AG) (EG) (EG) (AG) (EU) (EU)
                 (AU) (AU) (EU) (EU) (EG) (EG) (EU) (EU) (AU) (EG)
                 (EG) (AG) (AG) (EU) (EU) (AU) (EG) (EG) (AG) (EU)
                 (EU) (AU) (EG) (EG) (EU) (EU) (AG) (EG) (EG) (AU)
                 (AG) (EU) (EU) (AU) (EG) (EG)
 The electronic state of the initial guess is 1-AG.
 Requested convergence on RMS density matrix=1.00D-08 within 128 cycles.
 Requested convergence on MAX density matrix=1.00D-06.
 Requested convergence on             energy=1.00D-06.
 No special actions if energy rises.
 Integral accuracy reduced to 1.0D-05 until final iterations.
 Initial convergence to 1.0D-05 achieved.  Increase integral accuracy.
 SCF Done:  E(RB3LYP) =  -235.897159012     A.U. after   10 cycles
            NFock= 10  Conv=0.40D-08     -V/T= 2.0103
 DoSCS=F DFT=T ScalE2(SS,OS)=  1.000000  1.000000
 Range of M.O.s used for correlation:     1   150
 NBasis=   150 NAE=    24 NBE=    24 NFC=     0 NFV=     0
 NROrb=    150 NOA=    24 NOB=    24 NVA=   126 NVB=   126
 Symmetrizing basis deriv contribution to polar:
 IMax=3 JMax=2 DiffMx= 0.00D+00
 G2DrvN: will do    19 centers at a time, making    1 passes.
 Calling FoFCou, ICntrl=  3107 FMM=F I1Cent=   0 AccDes= 0.00D+00.
 End of G2Drv F.D. properties file   721 does not exist.
 End of G2Drv F.D. properties file   722 does not exist.
 End of G2Drv F.D. properties file   788 does not exist.
          IDoAtm=111111111111111111
          Differentiating once with respect to electric field.
                with respect to dipole field.
          Differentiating once with respect to nuclear coordinates.
 Keep R1 ints in memory in symmetry-blocked form, NReq=96237610.
          There are    12 degrees of freedom in the 1st order CPHF.  IDoFFX=4 NUNeed=    12.
     12 vectors produced by pass  0 Test12= 2.52D-14 8.33D-09 XBig12= 3.87D+01 3.17D+00.
 AX will form    12 AO Fock derivatives at one time.
     12 vectors produced by pass  1 Test12= 2.52D-14 8.33D-09 XBig12= 2.49D+00 4.07D-01.
     12 vectors produced by pass  2 Test12= 2.52D-14 8.33D-09 XBig12= 2.36D-01 7.95D-02.
     12 vectors produced by pass  3 Test12= 2.52D-14 8.33D-09 XBig12= 9.82D-03 2.08D-02.
     12 vectors produced by pass  4 Test12= 2.52D-14 8.33D-09 XBig12= 1.06D-04 1.39D-03.
     12 vectors produced by pass  5 Test12= 2.52D-14 8.33D-09 XBig12= 8.70D-07 1.25D-04.
     11 vectors produced by pass  6 Test12= 2.52D-14 8.33D-09 XBig12= 3.05D-09 7.90D-06.
      6 vectors produced by pass  7 Test12= 2.52D-14 8.33D-09 XBig12= 1.30D-11 6.28D-07.
      3 vectors produced by pass  8 Test12= 2.52D-14 8.33D-09 XBig12= 4.15D-14 3.60D-08.
 InvSVY:  IOpt=1 It=  1 EMax= 5.33D-15
 Solved reduced A of dimension    92 with    12 vectors.
 Isotropic polarizability for W=    0.000000       62.06 Bohr**3.
 End of Minotr F.D. properties file   721 does not exist.
 End of Minotr F.D. properties file   722 does not exist.
 End of Minotr F.D. properties file   788 does not exist.

 **********************************************************************

            Population analysis using the SCF Density.

 **********************************************************************

 Orbital symmetries:
       Occupied  (AG) (EU) (EU) (EG) (EG) (AU) (AG) (EU) (EU) (EG)
                 (EG) (AU) (AG) (AU) (EG) (EG) (EU) (EU) (AU) (EU)
                 (EU) (AG) (EG) (EG)
       Virtual   (AG) (AU) (EU) (EU) (AU) (EG) (EG) (AG) (EG) (EG)
                 (EU) (EU) (EG) (EG) (AU) (EU) (EU) (AG) (AU) (AU)
                 (EG) (EG) (AG) (EU) (EU) (EG) (EG) (AU) (EU) (EU)
                 (AG) (AG) (EG) (EG) (EU) (EU) (AG) (AU) (EG) (EG)
                 (EU) (EU) (AU) (EG) (EG) (AG) (AG) (EU) (EU) (EU)
                 (EU) (EU) (EU) (AG) (AU) (EG) (EG) (AG) (AU) (EG)
                 (EG) (AU) (EU) (EU) (EG) (EG) (AU) (EU) (EU) (AG)
                 (AU) (EG) (EG) (EG) (EG) (AG) (EU) (EU) (AU) (EG)
                 (EG) (AG) (EU) (EU) (AG) (EG) (EG) (AG) (EU) (EU)
                 (AU) (AU) (EU) (EU) (EG) (EG) (EU) (EU) (AU) (EG)
                 (EG) (AG) (EU) (EU) (AU) (AG) (EG) (EG) (AG) (EU)
                 (EU) (AU) (EG) (EG) (EU) (EU) (AG) (EG) (EG) (AU)
                 (AG) (EU) (EU) (AU) (EG) (EG)
 The electronic state is 1-AG.
 Alpha  occ. eigenvalues --  -10.17381 -10.17371 -10.17371 -10.17351 -10.17351
 Alpha  occ. eigenvalues --  -10.17339  -0.81986  -0.73172  -0.73172  -0.59920
 Alpha  occ. eigenvalues --   -0.59920  -0.54253  -0.47068  -0.43451  -0.42748
 Alpha  occ. eigenvalues --   -0.42748  -0.37041  -0.37041  -0.36397  -0.33412
 Alpha  occ. eigenvalues --   -0.33412  -0.30890  -0.29202  -0.29202
 Alpha virt. eigenvalues --    0.08774   0.11360   0.13612   0.13612   0.16498
 Alpha virt. eigenvalues --    0.17372   0.17372   0.17440   0.18691   0.18691
 Alpha virt. eigenvalues --    0.18817   0.18817   0.24005   0.24005   0.25336
 Alpha virt. eigenvalues --    0.27897   0.27897   0.29228   0.51455   0.52032
 Alpha virt. eigenvalues --    0.53956   0.53956   0.54318   0.57357   0.57357
 Alpha virt. eigenvalues --    0.64086   0.64086   0.67089   0.71898   0.71898
 Alpha virt. eigenvalues --    0.72532   0.74298   0.80273   0.80273   0.84432
 Alpha virt. eigenvalues --    0.84432   0.84925   0.87496   0.88983   0.88983
 Alpha virt. eigenvalues --    0.90937   0.90937   0.94334   0.94929   0.94929
 Alpha virt. eigenvalues --    0.98219   1.00861   1.13977   1.13977   1.27856
 Alpha virt. eigenvalues --    1.27856   1.36089   1.36089   1.44903   1.53038
 Alpha virt. eigenvalues --    1.60532   1.60532   1.61520   1.61868   1.70578
 Alpha virt. eigenvalues --    1.70578   1.78047   1.85833   1.85833   1.85918
 Alpha virt. eigenvalues --    1.85918   1.89884   1.93937   1.93937   1.95393
 Alpha virt. eigenvalues --    2.11503   2.12090   2.12090   2.13438   2.13438
 Alpha virt. eigenvalues --    2.15013   2.16002   2.16002   2.23512   2.27932
 Alpha virt. eigenvalues --    2.27932   2.31293   2.34990   2.34990   2.35954
 Alpha virt. eigenvalues --    2.37007   2.37007   2.45485   2.47301   2.47301
 Alpha virt. eigenvalues --    2.51095   2.55249   2.60670   2.60670   2.63359
 Alpha virt. eigenvalues --    2.63359   2.75232   2.75232   2.81543   2.81674
 Alpha virt. eigenvalues --    2.81674   2.86722   2.88992   2.88992   2.90139
 Alpha virt. eigenvalues --    2.91210   2.94607   2.94607   3.19527   3.29503
 Alpha virt. eigenvalues --    3.29503   3.30529   3.33734   3.33734   3.46858
 Alpha virt. eigenvalues --    3.46858   3.47528   3.52808   3.52808   3.60273
 Alpha virt. eigenvalues --    4.28194   4.43320   4.43320   4.72038   4.73923
 Alpha virt. eigenvalues --    4.73923
          Condensed to atoms (all electrons):
               1          2          3          4          5          6
     1  C    4.901241   0.383165  -0.043132  -0.014283  -0.043132   0.383165
     2  C    0.383165   4.901241   0.383165  -0.043132  -0.014283  -0.043132
     3  C   -0.043132   0.383165   4.901241   0.383165  -0.043132  -0.014283
     4  C   -0.014283  -0.043132   0.383165   4.901241   0.383165  -0.043132
     5  C   -0.043132  -0.014283  -0.043132   0.383165   4.901241   0.383165
     6  C    0.383165  -0.043132  -0.014283  -0.043132   0.383165   4.901241
     7  H    0.004757  -0.032608   0.375857  -0.032608   0.004757   0.000204
     8  H   -0.041172   0.380135  -0.041172  -0.005344  -0.000890  -0.005344
     9  H   -0.032608   0.375857  -0.032608   0.004757   0.000204   0.004757
    10  H    0.380135  -0.041172  -0.005344  -0.000890  -0.005344  -0.041172
    11  H    0.375857  -0.032608   0.004757   0.000204   0.004757  -0.032608
    12  H   -0.000890  -0.005344  -0.041172   0.380135  -0.041172  -0.005344
    13  H    0.000204   0.004757  -0.032608   0.375857  -0.032608   0.004757
    14  H    0.004757   0.000204   0.004757  -0.032608   0.375857  -0.032608
    15  H   -0.005344  -0.000890  -0.005344  -0.041172   0.380135  -0.041172
    16  H   -0.041172  -0.005344  -0.000890  -0.005344  -0.041172   0.380135
    17  H   -0.032608   0.004757   0.000204   0.004757  -0.032608   0.375857
    18  H   -0.005344  -0.041172   0.380135  -0.041172  -0.005344  -0.000890
               7          8          9         10         11         12
     1  C    0.004757  -0.041172  -0.032608   0.380135   0.375857  -0.000890
     2  C   -0.032608   0.380135   0.375857  -0.041172  -0.032608  -0.005344
     3  C    0.375857  -0.041172  -0.032608  -0.005344   0.004757  -0.041172
     4  C   -0.032608  -0.005344   0.004757  -0.000890   0.000204   0.380135
     5  C    0.004757  -0.000890   0.000204  -0.005344   0.004757  -0.041172
     6  C    0.000204  -0.005344   0.004757  -0.041172  -0.032608  -0.005344
     7  H    0.647376  -0.004886  -0.002738  -0.000047  -0.000176  -0.004885
     8  H   -0.004886   0.650756  -0.038008   0.006344  -0.004885   0.005225
     9  H   -0.002738  -0.038008   0.647376  -0.004886  -0.002738  -0.000047
    10  H   -0.000047   0.006344  -0.004886   0.650756  -0.038008   0.000187
    11  H   -0.000176  -0.004885  -0.002738  -0.038008   0.647376  -0.000029
    12  H   -0.004885   0.005225  -0.000047   0.000187  -0.000029   0.650756
    13  H   -0.002738  -0.000047  -0.000176  -0.000029   0.000012  -0.038008
    14  H   -0.000176  -0.000029   0.000012  -0.000047  -0.000176  -0.004886
    15  H   -0.000047   0.000187  -0.000029   0.005225  -0.000047   0.006344
    16  H   -0.000029   0.005225  -0.000047   0.006344  -0.004886   0.005225
    17  H    0.000012  -0.000047  -0.000176  -0.004885  -0.002738  -0.000047
    18  H   -0.038008   0.006344  -0.004885   0.005225  -0.000047   0.006344
              13         14         15         16         17         18
     1  C    0.000204   0.004757  -0.005344  -0.041172  -0.032608  -0.005344
     2  C    0.004757   0.000204  -0.000890  -0.005344   0.004757  -0.041172
     3  C   -0.032608   0.004757  -0.005344  -0.000890   0.000204   0.380135
     4  C    0.375857  -0.032608  -0.041172  -0.005344   0.004757  -0.041172
     5  C   -0.032608   0.375857   0.380135  -0.041172  -0.032608  -0.005344
     6  C    0.004757  -0.032608  -0.041172   0.380135   0.375857  -0.000890
     7  H   -0.002738  -0.000176  -0.000047  -0.000029   0.000012  -0.038008
     8  H   -0.000047  -0.000029   0.000187   0.005225  -0.000047   0.006344
     9  H   -0.000176   0.000012  -0.000029  -0.000047  -0.000176  -0.004885
    10  H   -0.000029  -0.000047   0.005225   0.006344  -0.004885   0.005225
    11  H    0.000012  -0.000176  -0.000047  -0.004886  -0.002738  -0.000047
    12  H   -0.038008  -0.004886   0.006344   0.005225  -0.000047   0.006344
    13  H    0.647376  -0.002738  -0.004885  -0.000047  -0.000176  -0.004886
    14  H   -0.002738   0.647376  -0.038008  -0.004885  -0.002738  -0.000047
    15  H   -0.004885  -0.038008   0.650756   0.006344  -0.004886   0.005225
    16  H   -0.000047  -0.004885   0.006344   0.650756  -0.038008   0.000187
    17  H   -0.000176  -0.002738  -0.004886  -0.038008   0.647376  -0.000029
    18  H   -0.004886  -0.000047   0.005225   0.000187  -0.000029   0.650756
 Mulliken charges:
               1
     1  C   -0.173594
     2  C   -0.173594
     3  C   -0.173594
     4  C   -0.173594
     5  C   -0.173594
     6  C   -0.173594
     7  H    0.085984
     8  H    0.087610
     9  H    0.085984
    10  H    0.087610
    11  H    0.085984
    12  H    0.087610
    13  H    0.085984
    14  H    0.085984
    15  H    0.087610
    16  H    0.087610
    17  H    0.085984
    18  H    0.087610
 Sum of Mulliken charges =  -0.00000
 Mulliken charges with hydrogens summed into heavy atoms:
               1
     1  C   -0.000000
     2  C   -0.000000
     3  C   -0.000000
     4  C   -0.000000
     5  C   -0.000000
     6  C   -0.000000
 APT charges:
               1
     1  C    0.116055
     2  C    0.116064
     3  C    0.116055
     4  C    0.116055
     5  C    0.116064
     6  C    0.116055
     7  H   -0.061978
     8  H   -0.054080
     9  H   -0.061980
    10  H   -0.054081
    11  H   -0.061978
    12  H   -0.054081
    13  H   -0.061978
    14  H   -0.061980
    15  H   -0.054080
    16  H   -0.054081
    17  H   -0.061978
    18  H   -0.054081
 Sum of APT charges =  -0.00001
 APT charges with hydrogens summed into heavy atoms:
               1
     1  C   -0.000004
     2  C    0.000004
     3  C   -0.000004
     4  C   -0.000004
     5  C    0.000004
     6  C   -0.000004
 Electronic spatial extent (au):  <R**2>=            594.6046
 Charge=              0.0000 electrons
 Dipole moment (field-independent basis, Debye):
    X=             -0.0000    Y=             -0.0000    Z=              0.0000  Tot=              0.0000
 Quadrupole moment (field-independent basis, Debye-Ang):
   XX=            -40.0041   YY=            -40.0041   ZZ=            -39.5108
   XY=              0.0000   XZ=             -0.0000   YZ=             -0.0000
 Traceless Quadrupole moment (field-independent basis, Debye-Ang):
   XX=             -0.1644   YY=             -0.1644   ZZ=              0.3288
   XY=              0.0000   XZ=             -0.0000   YZ=             -0.0000
 Octapole moment (field-independent basis, Debye-Ang**2):
  XXX=             -0.0000  YYY=              0.0000  ZZZ=              0.0000  XYY=             -0.0000
  XXY=              0.0000  XXZ=              0.0000  XZZ=             -0.0000  YZZ=              0.0000
  YYZ=              0.0000  XYZ=             -0.0000
 Hexadecapole moment (field-independent basis, Debye-Ang**3):
 XXXX=           -358.0212 YYYY=           -358.0212 ZZZZ=            -98.1121 XXXY=             -0.0000
 XXXZ=             -0.0000 YYYX=             -0.0000 YYYZ=              2.2160 ZZZX=             -0.0000
 ZZZY=              0.0000 XXYY=           -119.3404 XXZZ=            -77.6987 YYZZ=            -77.6987
 XXYZ=             -2.2160 YYXZ=              0.0000 ZZXY=             -0.0000
 N-N= 2.549931797783D+02 E-N=-1.054713372932D+03  KE= 2.335009562304D+02
 Symmetry AG   KE= 1.165429384279D+02
 Symmetry AU   KE= 1.169580178025D+02
  Exact polarizability:  64.573   0.000  64.574   0.000   0.000  57.041
 Approx polarizability:  83.683  -0.000  83.683  -0.000  -0.000  86.856
 Calling FoFJK, ICntrl=    100127 FMM=F ISym2X=1 I1Cent= 0 IOpClX= 0 NMat=1 NMatS=1 NMatT=0.
 Full mass-weighted force constant matrix:
 Low frequencies ---   -6.6949   -6.6949   -0.0147   -0.0147   -0.0021   22.8479
 Low frequencies ---  234.0927  234.0927  379.5830
 Diagonal vibrational polarizability:
        0.6525283       0.6525576       0.8404409
 Harmonic frequencies (cm**-1), IR intensities (KM/Mole), Raman scattering
 activities (A**4/AMU), depolarization ratios for plane and unpolarized
 incident light, reduced masses (AMU), force constants (mDyne/A),
 and normal coordinates:
                      1                      2                      3
                     EU                     EU                     AG
 Frequencies --    234.0927               234.0927               379.5830
 Red. masses --      1.7634                 1.7634                 1.5416
 Frc consts  --      0.0569                 0.0569                 0.1309
 IR Inten    --      0.0191                 0.0191                 0.0000
  Atom  AN      X      Y      Z        X      Y      Z        X      Y      Z
     1   6     0.00   0.05  -0.07     0.05   0.00   0.12    -0.05   0.03  -0.07
     2   6     0.04  -0.02  -0.07    -0.03  -0.04  -0.12     0.00   0.05   0.07
     3   6    -0.04  -0.02   0.14    -0.03   0.04  -0.00     0.05   0.03  -0.07
     4   6     0.00   0.05  -0.07     0.05   0.00   0.12     0.05  -0.03   0.07
     5   6     0.04  -0.02  -0.07    -0.03  -0.04  -0.12    -0.00  -0.05  -0.07
     6   6    -0.04  -0.02   0.14    -0.03   0.04  -0.00    -0.05  -0.03   0.07
     7   1     0.04   0.02   0.38    -0.01   0.02  -0.00    -0.02  -0.01  -0.27
     8   1     0.16  -0.16  -0.08    -0.09  -0.28  -0.13    -0.00   0.28   0.09
     9   1     0.02   0.02  -0.19    -0.01   0.04  -0.33     0.00  -0.02   0.27
    10   1    -0.06   0.22  -0.08     0.29  -0.06   0.13    -0.24   0.14  -0.09
    11   1     0.03   0.01  -0.19    -0.03   0.03   0.33     0.02  -0.01  -0.27
    12   1    -0.06   0.22  -0.08     0.29  -0.06   0.13     0.24  -0.14   0.09
    13   1     0.03   0.01  -0.19    -0.03   0.03   0.33    -0.02   0.01   0.27
    14   1     0.02   0.02  -0.19    -0.01   0.04  -0.33    -0.00   0.02  -0.27
    15   1     0.16  -0.16  -0.08    -0.09  -0.28  -0.13     0.00  -0.28  -0.09
    16   1    -0.28  -0.16   0.15    -0.09   0.16  -0.00    -0.24  -0.14   0.09
    17   1     0.04   0.02   0.38    -0.01   0.02  -0.00     0.02   0.01   0.27
    18   1    -0.28  -0.16   0.15    -0.09   0.16  -0.00     0.24   0.14  -0.09
                      4                      5                      6
                     EG                     EG                     AU
 Frequencies --    433.1911               433.1911               522.7791
 Red. masses --      2.9747                 2.9747                 1.3100
 Frc consts  --      0.3289                 0.3289                 0.2109
 IR Inten    --      0.0000                 0.0000                 0.5368
  Atom  AN      X      Y      Z        X      Y      Z        X      Y      Z
     1   6    -0.01  -0.11  -0.01     0.19  -0.09  -0.05     0.06  -0.03  -0.02
     2   6     0.07  -0.16   0.04     0.08   0.14  -0.04     0.00   0.06  -0.02
     3   6     0.19   0.07   0.05     0.01   0.12   0.02    -0.06  -0.03  -0.02
     4   6     0.01   0.11   0.01    -0.19   0.09   0.05     0.06  -0.03  -0.02
     5   6    -0.07   0.16  -0.04    -0.08  -0.14   0.04     0.00   0.06  -0.02
     6   6    -0.19  -0.07  -0.05    -0.01  -0.12  -0.02    -0.06  -0.03  -0.02
     7   1     0.09   0.09  -0.17     0.09  -0.07  -0.06     0.02   0.01   0.24
     8   1     0.12  -0.32   0.03     0.13   0.28  -0.03    -0.00   0.32  -0.00
     9   1    -0.07  -0.10  -0.13    -0.08   0.09   0.12    -0.00  -0.03   0.24
    10   1    -0.02  -0.19  -0.01     0.38  -0.18  -0.04     0.28  -0.16  -0.00
    11   1     0.08   0.08   0.03     0.10  -0.08   0.17    -0.02   0.01   0.24
    12   1     0.02   0.19   0.01    -0.38   0.18   0.04     0.28  -0.16  -0.00
    13   1    -0.08  -0.08  -0.03    -0.10   0.08  -0.17    -0.02   0.01   0.24
    14   1     0.07   0.10   0.13     0.08  -0.09  -0.12    -0.00  -0.03   0.24
    15   1    -0.12   0.32  -0.03    -0.13  -0.28   0.03    -0.00   0.32  -0.00
    16   1    -0.38  -0.15  -0.04    -0.03  -0.21  -0.01    -0.28  -0.16  -0.00
    17   1    -0.09  -0.09   0.17    -0.09   0.07   0.06     0.02   0.01   0.24
    18   1     0.38   0.15   0.04     0.03   0.21   0.01    -0.28  -0.16  -0.00
                      7                      8                      9
                     EG                     EG                     AG
 Frequencies --    798.4945               798.4945               806.0336
 Red. masses --      1.4509                 1.4509                 3.5298
 Frc consts  --      0.5450                 0.5450                 1.3512
 IR Inten    --      0.0000                 0.0000                 0.0000
  Atom  AN      X      Y      Z        X      Y      Z        X      Y      Z
     1   6     0.02  -0.06   0.05    -0.06  -0.01  -0.05    -0.16   0.09   0.05
     2   6     0.06  -0.02  -0.02    -0.02  -0.06  -0.07    -0.00   0.19  -0.05
     3   6     0.05   0.04  -0.07     0.04  -0.05  -0.01     0.16   0.09   0.05
     4   6    -0.02   0.06  -0.05     0.06   0.01   0.05     0.16  -0.09  -0.05
     5   6    -0.06   0.02   0.02     0.02   0.06   0.07     0.00  -0.19   0.05
     6   6    -0.05  -0.04   0.07    -0.04   0.05   0.01    -0.16  -0.09  -0.05
     7   1     0.19   0.10   0.35     0.02   0.04   0.06     0.22   0.13   0.24
     8   1    -0.07   0.12  -0.01     0.02   0.35  -0.04     0.00   0.01  -0.07
     9   1    -0.02  -0.07   0.12     0.01  -0.21   0.33    -0.00   0.26  -0.24
    10   1    -0.18   0.17   0.03     0.27  -0.10  -0.03    -0.01   0.00   0.07
    11   1     0.13  -0.06  -0.23    -0.14   0.10   0.27    -0.22   0.13   0.24
    12   1     0.18  -0.17  -0.03    -0.27   0.10   0.03     0.01  -0.00  -0.07
    13   1    -0.13   0.06   0.23     0.14  -0.10  -0.27     0.22  -0.13  -0.24
    14   1     0.02   0.07  -0.12    -0.01   0.21  -0.33     0.00  -0.26   0.24
    15   1     0.07  -0.12   0.01    -0.02  -0.35   0.04    -0.00  -0.01   0.07
    16   1     0.31   0.20   0.04     0.09  -0.03   0.01    -0.01  -0.00  -0.07
    17   1    -0.19  -0.10  -0.35    -0.02  -0.04  -0.06    -0.22  -0.13  -0.24
    18   1    -0.31  -0.20  -0.04    -0.09   0.03  -0.01     0.01   0.00   0.07
                     10                     11                     12
                     EU                     EU                     EU
 Frequencies --    869.2037               869.2037               921.9918
 Red. masses --      2.4090                 2.4090                 1.2872
 Frc consts  --      1.0723                 1.0723                 0.6447
 IR Inten    --      1.1249                 1.1256                 2.0599
  Atom  AN      X      Y      Z        X      Y      Z        X      Y      Z
     1   6    -0.12  -0.05   0.03    -0.08   0.12   0.05    -0.01  -0.00  -0.05
     2   6     0.00   0.15  -0.06     0.12  -0.01   0.00    -0.01  -0.01  -0.04
     3   6     0.12  -0.06   0.03    -0.09  -0.12  -0.06    -0.02  -0.01   0.09
     4   6    -0.12  -0.05   0.03    -0.08   0.12   0.05    -0.01  -0.00  -0.05
     5   6     0.00   0.15  -0.06     0.12  -0.01   0.00    -0.01  -0.01  -0.04
     6   6     0.12  -0.06   0.03    -0.09  -0.12  -0.06    -0.02  -0.01   0.09
     7   1     0.28  -0.30   0.08    -0.04  -0.27  -0.16    -0.13  -0.06  -0.26
     8   1     0.00   0.02  -0.07     0.12  -0.00   0.00     0.29   0.14  -0.03
     9   1     0.02   0.19  -0.18     0.45  -0.01   0.01    -0.12  -0.06   0.11
    10   1    -0.06  -0.08   0.04     0.02   0.06   0.06     0.30   0.13  -0.04
    11   1    -0.28  -0.28   0.10    -0.02   0.29   0.15    -0.13  -0.05   0.15
    12   1    -0.06  -0.08   0.04     0.02   0.06   0.06     0.30   0.13  -0.04
    13   1    -0.28  -0.28   0.10    -0.02   0.29   0.15    -0.13  -0.05   0.15
    14   1     0.02   0.19  -0.18     0.45  -0.01   0.01    -0.12  -0.06   0.11
    15   1     0.00   0.02  -0.07     0.12  -0.00   0.00     0.29   0.14  -0.03
    16   1     0.06  -0.09   0.03     0.01  -0.06  -0.06     0.30   0.14   0.06
    17   1     0.28  -0.30   0.08    -0.04  -0.27  -0.16    -0.13  -0.06  -0.26
    18   1     0.06  -0.09   0.03     0.01  -0.06  -0.06     0.30   0.14   0.06
                     13                     14                     15
                     EU                     EG                     EG
 Frequencies --    921.9918              1038.3804              1038.3804
 Red. masses --      1.2872                 1.7495                 1.7495
 Frc consts  --      0.6447                 1.1114                 1.1114
 IR Inten    --      2.0605                 0.0000                 0.0000
  Atom  AN      X      Y      Z        X      Y      Z        X      Y      Z
     1   6     0.01  -0.01   0.07     0.08   0.10  -0.01    -0.03   0.07   0.03
     2   6     0.00  -0.02  -0.08    -0.10  -0.04   0.02     0.09  -0.04   0.02
     3   6     0.00  -0.01   0.01     0.04   0.05   0.03    -0.08   0.11  -0.01
     4   6     0.01  -0.01   0.07    -0.08  -0.10   0.01     0.03  -0.07  -0.03
     5   6     0.00  -0.02  -0.08     0.10   0.04  -0.02    -0.09   0.04  -0.02
     6   6     0.00  -0.01   0.01    -0.04  -0.05  -0.03     0.08  -0.11   0.01
     7   1     0.05  -0.12  -0.02     0.01   0.12   0.07    -0.25   0.40  -0.01
     8   1    -0.13   0.30  -0.06    -0.19   0.01   0.02     0.17   0.01   0.03
     9   1     0.05  -0.13   0.24    -0.36  -0.05   0.05     0.32  -0.05   0.05
    10   1    -0.14   0.30   0.05     0.12   0.21  -0.01     0.06   0.06   0.03
    11   1     0.07  -0.13  -0.22     0.25   0.38  -0.02     0.02   0.17   0.07
    12   1    -0.14   0.30   0.05    -0.12  -0.21   0.01    -0.06  -0.06  -0.03
    13   1     0.07  -0.13  -0.22    -0.25  -0.38   0.02    -0.02  -0.17  -0.07
    14   1     0.05  -0.13   0.24     0.36   0.05  -0.05    -0.32   0.05  -0.05
    15   1    -0.13   0.30  -0.06     0.19  -0.01  -0.02    -0.17  -0.01  -0.03
    16   1    -0.13   0.29   0.01     0.04  -0.03  -0.04     0.12  -0.22   0.01
    17   1     0.05  -0.12  -0.02    -0.01  -0.12  -0.07     0.25  -0.40   0.01
    18   1    -0.13   0.29   0.01    -0.04   0.03   0.04    -0.12   0.22  -0.01
                     16                     17                     18
                     AU                     AG                     AU
 Frequencies --   1047.1222              1077.6243              1102.0764
 Red. masses --      2.6127                 1.0105                 2.5576
 Frc consts  --      1.6879                 0.6914                 1.8302
 IR Inten    --      1.5311                 0.0000                 0.0000
  Atom  AN      X      Y      Z        X      Y      Z        X      Y      Z
     1   6     0.13  -0.08   0.02    -0.00  -0.01  -0.00    -0.08  -0.13  -0.00
     2   6     0.00   0.15   0.02    -0.01   0.00   0.00     0.15  -0.00  -0.00
     3   6    -0.13  -0.08   0.02    -0.00   0.01  -0.00    -0.08   0.13  -0.00
     4   6     0.13  -0.08   0.02     0.00   0.01   0.00    -0.08  -0.13  -0.00
     5   6     0.00   0.15   0.02     0.01  -0.00  -0.00     0.15  -0.00  -0.00
     6   6    -0.13  -0.08   0.02     0.00  -0.01   0.00    -0.08   0.13  -0.00
     7   1    -0.21  -0.12  -0.24    -0.09   0.16  -0.00    -0.09   0.15   0.00
     8   1     0.00  -0.16  -0.00     0.37  -0.00   0.00     0.34   0.00  -0.00
     9   1     0.00   0.25  -0.24    -0.18   0.00   0.00     0.17  -0.00   0.00
    10   1    -0.14   0.08  -0.00     0.18   0.32  -0.00    -0.17  -0.29  -0.00
    11   1     0.21  -0.12  -0.24    -0.09  -0.16  -0.00    -0.09  -0.15   0.00
    12   1    -0.14   0.08  -0.00    -0.18  -0.32   0.00    -0.17  -0.29  -0.00
    13   1     0.21  -0.12  -0.24     0.09   0.16   0.00    -0.09  -0.15   0.00
    14   1     0.00   0.25  -0.24     0.18  -0.00  -0.00     0.17  -0.00   0.00
    15   1     0.00  -0.16  -0.00    -0.37   0.00  -0.00     0.34   0.00  -0.00
    16   1     0.13   0.08  -0.00    -0.18   0.32   0.00    -0.17   0.29  -0.00
    17   1    -0.21  -0.12  -0.24     0.09  -0.16   0.00    -0.09   0.15   0.00
    18   1     0.13   0.08  -0.00     0.18  -0.32  -0.00    -0.17   0.29  -0.00
                     19                     20                     21
                     AU                     AG                     EU
 Frequencies --   1134.1559              1187.5742              1293.1355
 Red. masses --      1.0783                 2.2434                 1.2919
 Frc consts  --      0.8172                 1.8642                 1.2728
 IR Inten    --      0.0000                 0.0000                 2.9403
  Atom  AN      X      Y      Z        X      Y      Z        X      Y      Z
     1   6     0.02   0.03  -0.00     0.01  -0.01   0.14    -0.00  -0.01  -0.07
     2   6    -0.03   0.00  -0.00     0.00  -0.01  -0.14     0.00  -0.00   0.09
     3   6     0.02  -0.03  -0.00    -0.01  -0.01   0.14     0.00  -0.01  -0.02
     4   6     0.02   0.03  -0.00    -0.01   0.01  -0.14    -0.00  -0.01  -0.07
     5   6    -0.03   0.00  -0.00    -0.00   0.01   0.14     0.00  -0.00   0.09
     6   6     0.02  -0.03  -0.00     0.01   0.01  -0.14     0.00  -0.01  -0.02
     7   1    -0.20   0.35   0.00    -0.11  -0.06  -0.18     0.12  -0.19   0.02
     8   1    -0.03  -0.00   0.00     0.00   0.30  -0.11    -0.14  -0.16   0.08
     9   1     0.41  -0.00   0.00    -0.00  -0.12   0.18     0.07   0.05  -0.07
    10   1     0.01   0.03   0.00    -0.26   0.15   0.11     0.27   0.22  -0.06
    11   1    -0.20  -0.35   0.00     0.11  -0.06  -0.18    -0.11  -0.12   0.05
    12   1     0.01   0.03   0.00     0.26  -0.15  -0.11     0.27   0.22  -0.06
[...]
 63,-0.0179884,0.0065164,0.0927091,-0.0103711,0.0255936,0.0147665,0.155
 2072,-0.1579659,-0.0868448,0.0406129,-0.0868374,-0.0576907,0.0234481,0
 .0616331,0.0355813,0.0297213,-0.0185321,0.000001,0.0000027,-0.0000081,
 0.0412201,-0.0077663,0.0000041,0.0452229,-0.184927,-0.0075514,-0.00000
 16,0.0000007,0.0000015,-0.2081096,-0.0468961,-0.0000009,-0.0711675,0.0
 297215,0.0262813,-0.0258643,-0.0067271,-0.0258728,-0.0035965,0.0038815
 ,0.0391708,-0.0226177,-0.1849277,-0.1579659,0.0868417,-0.0406136,0.086
 8406,-0.0576907,0.0234469,-0.0616322,0.0355828,0.0297213,0.0262813,-0.
 0258643,-0.0067271,-0.0258728,-0.0035965,0.0038815,0.0391708,-0.022617
 7,-0.1849277,-0.1579659,0.0868417,-0.0406136,0.0868406,-0.0576907,0.02
 34469,-0.0616322,0.0355828,0.0297213,-0.0075514,-0.0000016,0.0000007,0
 .0000015,-0.2081096,-0.0468961,-0.0000009,-0.0711675,0.0297215,-0.0185
 321,0.000001,0.0000026,-0.0000081,0.0412201,-0.0077663,0.0000041,0.045
 2229,-0.184927,0.0262752,0.0258769,0.0067244,0.0258672,-0.0035904,0.00
 38861,-0.0391748,-0.0226106,-0.1849277,-0.1579659,-0.0868448,0.0406129
 ,-0.0868374,-0.0576907,0.0234481,0.0616331,0.0355813,0.0297213,0.02627
 52,0.0258769,0.0067244,0.0258672,-0.0035904,0.0038861,-0.0391748,-0.02
 26106,-0.1849277\Polar=64.5728333,0.,64.5741554,0.,0.0000239,57.041310
 6\Quadrupole=-0.1222451,-0.1222451,0.2444902,0.,0.,0.\PG=S06 [X(C6H12)
 ]\NImag=0\\0.53413199,-0.05568165,0.46986873,0.03012095,-0.01736092,0.
 56964082,-0.14849558,-0.03833727,0.02690794,0.43771283,-0.03812929,-0.
 10432543,0.01491561,0.00001402,0.56628789,0.02639421,0.01583195,-0.092
 30441,-0.00002547,0.03476597,0.56964082,-0.03253413,0.01115536,-0.0078
 3969,-0.14847895,0.03813888,-0.02637127,0.53415627,-0.01115304,0.01137
 104,-0.00599327,0.03834686,-0.10434205,0.01584515,0.05566763,0.4698444
 5,0.00782666,-0.00598311,0.00480224,-0.02690797,0.01494208,-0.09230441
 ,-0.03009547,-0.01740504,0.56964082,0.00194851,-0.00080965,0.00099719,
 0.00039575,0.03016512,0.00911017,-0.08225698,-0.00011359,-0.00053667,0
 .53413199,-0.00080965,0.00105296,-0.00058254,0.00785671,-0.02155884,-0
 .00379274,0.00009439,-0.17056403,-0.03076076,-0.05568165,0.46986873,0.
 00099719,-0.00058254,-0.00021821,0.00126820,0.00976964,0.00480224,0.00
 051376,-0.03077403,-0.09230441,0.03012095,-0.01736092,0.56964082,0.000
 39575,0.00785671,0.00126820,0.00057567,0.00001704,0.00000590,0.0003937
 4,-0.00785787,-0.00127048,-0.14849558,-0.03833727,0.02690794,0.4377128
 3,0.03016512,-0.02155884,0.00976964,0.00001704,0.00242580,0.00115487,-
 0.03016628,-0.02155683,0.00978600,-0.03812929,-0.10432543,0.01491561,0
 .00001402,0.56628789,0.00911017,-0.00379274,0.00480224,0.00000590,0.00
 115487,-0.00021821,-0.00909486,-0.00378653,0.00480224,0.02639421,0.015
 83195,-0.09230441,-0.00002547,0.03476597,0.56964082,-0.08225698,0.0000
 9439,0.00051376,0.00039374,-0.03016628,-0.00909486,0.00197803,0.000792
 61,-0.00100309,-0.03253413,0.01115536,-0.00783969,-0.14847895,0.038138
 88,-0.02637127,0.53415627,-0.00011359,-0.17056403,-0.03077403,-0.00785
 787,-0.02155683,-0.00378653,0.00079261,0.00102344,-0.00057232,-0.01115
 304,0.01137104,-0.00599327,0.03834686,-0.10434205,0.01584515,0.0556676
 3,0.46984445,-0.00053667,-0.03076076,-0.09230441,-0.00127048,0.0097860
 0,0.00480224,-0.00100309,-0.00057232,-0.00021821,0.00782666,-0.0059831
 1,0.00480224,-0.02690797,0.01494208,-0.09230441,-0.03009547,-0.0174050
 4,0.56964082,-0.00313686,0.00466458,-0.00320692,-0.02216655,-0.0131814
 9,0.01039984,-0.21638681,-0.09749470,0.07357137,0.00130471,0.00073593,
 -0.00070802,0.00113647,0.00021688,-0.00033139,0.00044073,0.00061245,0.
 00018824,0.23584705,0.00268394,-0.00168006,0.00146910,0.01429088,0.008
 49121,-0.00682269,-0.09749566,-0.10380252,0.04247496,-0.02673291,-0.01
 498418,0.01241811,0.00219562,-0.00595417,-0.00351206,0.00061149,-0.000
 26478,0.00010871,0.10493151,0.11467636,-0.00130906,0.00124976,-0.00034
 236,-0.01016864,-0.00553751,0.00323665,0.07461018,0.04307717,-0.082352
 40,-0.00988093,-0.00603853,0.00323705,0.00042821,-0.00175766,-0.000342
 84,0.00011156,0.00006470,-0.00001350,-0.07983926,-0.04609412,0.0849319
 9,-0.00179034,-0.00192321,0.03008521,-0.04680884,-0.00001722,0.0000028
 9,-0.00179525,0.00192132,-0.03008659,0.00100864,-0.00133558,-0.0002621
 7,-0.00019967,-0.00000066,0.00000038,0.00101153,0.00133798,0.00025903,
 0.00103696,-0.00072500,0.00027745,0.05594581,-0.00045185,-0.00145904,0
 .01624192,-0.00003450,-0.05213913,0.01183616,0.00045491,-0.00147226,0.
 01622049,-0.00053522,0.00090972,0.00132544,-0.00000194,-0.00021834,-0.
 00012316,0.00055156,0.00092225,0.00131885,-0.00038857,0.00048520,-0.00
 061225,0.00001964,0.05185940,0.00091412,0.00038450,-0.01093086,0.00001
 061,0.01239931,-0.29665710,-0.00092113,0.00039157,-0.01093163,0.000617
 23,-0.00067127,0.00022710,0.00000137,0.00019631,0.00022562,-0.00061769
 ,-0.00067388,0.00022581,-0.00047533,-0.00016075,0.00063274,-0.00000129
 ,-0.01553428,0.32439624,0.00034639,-0.02728873,-0.01110854,-0.04751528
 ,-0.00000235,-0.00000129,0.00034506,0.02728696,0.01110841,-0.00522616,
 0.00147785,-0.00287584,-0.00061839,-0.00000001,0.00000003,-0.00522627,
 -0.00147762,0.00287574,0.00081726,-0.00059314,0.00063581,-0.00050277,0
 .00000072,0.00000029,0.05409567,0.00018363,-0.01402173,-0.00559518,-0.
 00000332,-0.27267404,-0.08495215,-0.00018188,-0.01402454,-0.00559589,0
 .00345658,0.00040846,0.00204302,-0.00000097,0.00079433,-0.00021737,-0.
 00345826,0.00040934,0.00204273,0.00031896,0.00065901,-0.00015493,0.000
 00017,0.00233020,0.00015769,0.00000269,0.29642773,0.00028870,0.0115750
 6,0.00323665,0.00000083,-0.08615290,-0.08235240,-0.00028905,0.01157640
 ,0.00323705,-0.00173629,0.00050799,-0.00034284,0.00000025,-0.00012896,
 -0.00001350,0.00173685,0.00050880,-0.00034236,0.00045181,-0.00047290,0
 .00010056,-0.00000022,-0.03086442,-0.01146458,0.00000095,0.09218989,0.
 08493199,-0.05078416,0.00232966,0.01024897,-0.00258195,-0.00000071,0.0
 2909065,0.00174453,0.00011035,0.00127895,-0.00021255,0.00000938,-0.000
 10685,0.00012638,-0.00004051,0.00101264,-0.00051343,-0.00028538,-0.000
 97669,0.00030270,-0.00015663,-0.00039581,-0.00455301,-0.00276229,0.002
 02973,0.00110533,0.00034910,-0.00066895,0.05286399,0.00231238,-0.04816
 381,-0.00592058,-0.00146712,-0.00068557,0.01794550,0.00091071,0.000173
 83,-0.00043568,0.00000810,-0.00020547,0.00006125,-0.00082694,0.0018074
 1,-0.00088375,0.00118599,-0.00273594,-0.03417552,0.00015417,-0.0001317
 0,-0.00010481,-0.00360628,-0.00087629,0.00101363,0.00068553,0.00041683
 ,0.00006585,0.00175965,0.05494122,0.01073281,-0.00620884,-0.29665710,0
 .00079968,0.00060194,-0.01093163,-0.00088995,-0.00019890,0.00022710,0.
 00016933,-0.00009935,0.00022562,-0.00027475,0.00087188,0.00022581,-0.0
 0012407,-0.00098390,-0.01093086,0.00006780,0.00003817,0.00038832,0.001
 89259,0.00125067,0.00083503,0.00009845,0.00049202,0.00063274,-0.013452
 44,0.00776825,0.32439624,-0.21638189,0.09749850,-0.07357008,-0.0221689
 9,0.01318037,-0.01040039,-0.00313687,-0.00466283,0.00320723,0.00044158
 ,-0.00061100,-0.00018826,0.00113774,-0.00021600,0.00033118,0.00130715,
 -0.00073833,0.00070870,-0.00159682,0.00106117,-0.00043614,0.00103654,0
 .00038837,0.00047558,0.00081729,-0.00031899,-0.00045208,0.00162157,-0.
 00122667,0.00013642,0.23584239,0.09749754,-0.10380743,0.04247719,-0.01
 428847,0.00848951,-0.00682222,-0.00268410,-0.00168083,0.00146904,-0.00
 061196,-0.00026563,0.00010866,-0.00219664,-0.00595467,-0.00351183,0.02
 673404,-0.01498249,0.01241787,-0.00106116,0.00058272,-0.00011049,0.000
 72480,0.00048551,-0.00016064,0.00059311,0.00065898,-0.00047317,-0.0012
 2721,0.00020586,-0.00007910,-0.10493420,0.11468102,-0.07461101,0.04307
 573,-0.08235240,0.01016998,-0.00553788,0.00323705,0.00130807,0.0012496
 7,-0.00034284,-0.00011181,0.00006426,-0.00001350,-0.00042780,-0.001758
 56,-0.00034236,0.00987995,-0.00603755,0.00323665,0.00043614,-0.0001105
 2,0.00045597,-0.00027642,-0.00061129,0.00063293,-0.00063545,-0.0001548
 2,0.00010056,-0.02672926,0.01543240,-0.01146458,0.07983831,-0.04609576
 ,0.08493199,-0.00021255,0.00000938,-0.00010685,0.00012638,-0.00004051,
 0.00101264,-0.00051343,-0.00028538,-0.00097669,-0.05078416,0.00232966,
 0.01024897,-0.00258195,-0.00000071,0.02909065,0.00174453,0.00011035,0.
 00127895,0.00014125,0.00012852,-0.00039118,0.00011531,0.00013070,-0.00
 002995,-0.00002204,-0.00003343,-0.00010723,0.00003017,-0.00010622,-0.0
 0018496,-0.00001400,0.00008847,-0.00001232,0.05286399,0.00000810,-0.00
 020547,0.00006125,-0.00082694,0.00180741,-0.00088375,0.00118599,-0.002
 73594,-0.03417552,0.00231238,-0.04816381,-0.00592058,-0.00146712,-0.00
 068557,0.01794550,0.00091071,0.00017383,-0.00043568,-0.00020791,0.0013
 8080,0.00054503,0.00038166,-0.00018612,0.00084328,-0.00034415,0.000193
 18,0.00039528,-0.00010622,-0.00009258,0.00010676,0.00008856,0.00008815
 ,0.00000704,0.00175965,0.05494122,0.00016933,-0.00009935,0.00022562,-0
 .00027475,0.00087188,0.00022581,-0.00012407,-0.00098390,-0.01093086,0.
 01073281,-0.00620884,-0.29665710,0.00079968,0.00060194,-0.01093163,-0.
 00088995,-0.00019890,0.00022710,-0.00037691,-0.00033154,0.00063293,0.0
 0071720,-0.00044298,0.00060094,0.00000090,-0.00007776,0.00038845,-0.00
 018496,0.00010676,0.00002009,0.00008034,-0.00004637,-0.00002482,-0.013
 45244,0.00776825,0.32439624,0.00044158,-0.00061100,-0.00018826,0.00113
 774,-0.00021600,0.00033118,0.00130715,-0.00073833,0.00070870,-0.216381
 89,0.09749850,-0.07357008,-0.02216899,0.01318037,-0.01040039,-0.003136
 87,-0.00466283,0.00320723,0.00057985,0.00045607,0.00018364,-0.00002417
 ,-0.00003209,-0.00006695,0.00003784,-0.00011740,-0.00012236,-0.0000140
 0,0.00008856,0.00008034,0.00005725,0.00013203,-0.00003441,0.00162157,-
 0.00122667,0.00013642,0.23584239,-0.00061196,-0.00026563,0.00010866,-0
 .00219664,-0.00595467,-0.00351183,0.02673404,-0.01498249,0.01241787,0.
 09749754,-0.10380743,0.04247719,-0.01428847,0.00848951,-0.00682222,-0.
 00268410,-0.00168083,0.00146904,-0.00045603,0.00089641,0.00062773,-0.0
 0034288,0.00019516,0.00003963,0.00200493,-0.00105194,0.00043297,0.0000
 8847,0.00008815,-0.00004637,0.00013203,0.00020969,0.00001988,-0.001227
 21,0.00020586,-0.00007910,-0.10493420,0.11468102,-0.00011181,0.0000642
 6,-0.00001350,-0.00042780,-0.00175856,-0.00034236,0.00987995,-0.006037
 55,0.00323665,-0.07461101,0.04307573,-0.08235240,0.01016998,-0.0055378
 8,0.00323705,0.00130807,0.00124967,-0.00034284,-0.00018374,0.00062810,
 0.00010056,0.00028867,-0.00029038,0.00038832,0.00031376,-0.00032246,0.
 00045597,-0.00001232,0.00000704,-0.00002482,-0.00003441,0.00001988,-0.
 00002073,-0.02672926,0.01543240,-0.01146458,0.07983831,-0.04609576,0.0
 8493199,-0.00522616,0.00147785,-0.00287584,-0.00061839,-0.00000001,0.0
 0000003,-0.00522627,-0.00147762,0.00287574,0.00034639,-0.02728873,-0.0
 1110854,-0.04751528,-0.00000235,-0.00000129,0.00034506,0.02728696,0.01
 110841,0.00003783,-0.00200494,-0.00031378,0.00013927,0.00000002,-0.000
 00001,0.00028592,0.,-0.00000002,-0.00002204,-0.00034415,0.00000090,0.0
 0003784,0.00200493,0.00031376,0.00110533,0.00068553,0.00009845,0.00081
 729,0.00059311,-0.00063545,0.05409567,0.00345658,0.00040846,0.00204302
 ,-0.00000097,0.00079433,-0.00021737,-0.00345826,0.00040934,0.00204273,
 0.00018363,-0.01402173,-0.00559518,-0.00000332,-0.27267404,-0.08495215
 ,-0.00018188,-0.01402454,-0.00559589,0.00011740,-0.00105193,-0.0003224
 5,-0.00000007,-0.00006512,0.00009276,0.,-0.00001898,-0.00003974,-0.000
 03343,0.00019318,-0.00007776,-0.00011740,-0.00105194,-0.00032246,0.000
 34910,0.00041683,0.00049202,-0.00031899,0.00065898,-0.00015482,0.00000
 269,0.29642773,-0.00173629,0.00050799,-0.00034284,0.00000025,-0.000128
 96,-0.00001350,0.00173685,0.00050880,-0.00034236,0.00028870,0.01157506
 ,0.00323665,0.00000083,-0.08615290,-0.08235240,-0.00028905,0.01157640,
 0.00323705,0.00012238,0.00043295,0.00045597,0.00000006,-0.00001419,-0.
 00002482,-0.00000002,-0.00003974,-0.00002073,-0.00010723,0.00039528,0.
 00038845,-0.00012236,0.00043297,0.00045597,-0.00066895,0.00006585,0.00
 063274,-0.00045208,-0.00047317,0.00010056,0.00000095,0.09218989,0.0849
 3199,0.00100864,-0.00133558,-0.00026217,-0.00019967,-0.00000066,0.0000
 0038,0.00101153,0.00133798,0.00025903,-0.00179034,-0.00192321,0.030085
 21,-0.04680884,-0.00001722,0.00000289,-0.00179525,0.00192132,-0.030086
 59,-0.00002413,0.00034294,-0.00028871,-0.00015388,-0.00000004,0.000000
 02,0.00013927,-0.00000007,0.00000006,0.00011531,0.00038166,0.00071720,
 -0.00002417,-0.00034288,0.00028867,-0.00455301,-0.00360628,0.00189259,
 0.00103654,0.00072480,-0.00027642,-0.00050277,0.00000017,-0.00000022,0
 .05594581,-0.00053522,0.00090972,0.00132544,-0.00000194,-0.00021834,-0
 .00012316,0.00055156,0.00092225,0.00131885,-0.00045185,-0.00145904,0.0
 1624192,-0.00003450,-0.05213913,0.01183616,0.00045491,-0.00147226,0.01
 622049,0.00003223,0.00019526,-0.00029050,-0.00000004,0.00009148,-0.000
 21356,0.00000002,-0.00006512,-0.00001419,0.00013070,-0.00018612,-0.000
 44298,-0.00003209,0.00019516,-0.00029038,-0.00276229,-0.00087629,0.001
 25067,0.00038837,0.00048551,-0.00061129,0.00000072,0.00233020,-0.03086
 442,0.00001964,0.05185940,0.00061723,-0.00067127,0.00022710,0.00000137
 ,0.00019631,0.00022562,-0.00061769,-0.00067388,0.00022581,0.00091412,0
 .00038450,-0.01093086,0.00001061,0.01239931,-0.29665710,-0.00092113,0.
 00039157,-0.01093163,0.00006689,0.00003966,0.00038845,0.00000002,-0.00
 021356,0.00002009,-0.00000001,0.00009276,-0.00002482,-0.00002995,0.000
 84328,0.00060094,-0.00006695,0.00003963,0.00038832,0.00202973,0.001013
 63,0.00083503,0.00047558,-0.00016064,0.00063293,0.00000029,0.00015769,
 -0.01146458,-0.00000129,-0.01553428,0.32439624,-0.00052407,0.00027901,
 0.00099594,0.00012438,0.00002469,-0.00101678,-0.00021480,-0.00000679,0
 .00010647,0.00176277,-0.00011783,-0.00127167,-0.00257029,0.00000154,-0
 .02910852,-0.05082896,-0.00228651,-0.01025186,-0.00001405,-0.00008854,
 0.00001226,0.00011110,-0.00013313,0.00002503,-0.00002204,0.00003332,0.
 00010714,0.00096220,0.00042207,-0.00013704,0.00014095,-0.00012874,0.00
 039150,-0.00033262,-0.00012305,0.00074528,0.00030287,0.00015656,0.0003
 9593,0.00110529,-0.00034868,0.00066760,-0.00455315,0.00276222,-0.00202
 941,0.05289801,-0.00118740,-0.00274344,-0.03416599,0.00082505,0.001793
 99,-0.00088977,-0.00000808,-0.00020321,0.00006191,-0.00090426,0.000171
 02,-0.00043510,0.00147290,-0.00067909,0.01793360,-0.00230380,-0.048119
 02,-0.00591558,-0.00008844,0.00008819,0.00000715,-0.00038409,-0.000181
 91,0.00084260,0.00034411,0.00019303,0.00039519,-0.00042192,-0.00639151
 ,-0.00226461,0.00020769,0.00138121,0.00054640,0.00012791,0.00026181,-0
 .00039570,-0.00015415,-0.00013173,-0.00010478,-0.00068511,0.00041676,0
 .00006625,0.00360620,-0.00087616,0.00101369,-0.00177929,0.05490720,0.0
 0012146,-0.00099351,-0.01093163,0.00027273,0.00087017,0.00022710,-0.00
 017070,-0.00009697,0.00022562,0.00089244,-0.00019800,0.00022581,-0.000
 79005,0.00059940,-0.01093086,-0.01074342,-0.00619046,-0.29665710,-0.00
 008033,-0.00004639,-0.00002482,-0.00071533,-0.00044758,0.00060094,-0.0
 0000084,-0.00007780,0.00038832,0.00013682,-0.00226437,0.00083503,0.000
 37688,-0.00033127,0.00063274,-0.00074223,-0.00039962,0.00060094,-0.000
 06779,0.00003810,0.00038845,-0.00009867,0.00049218,0.00063293,-0.00189
 269,0.00125098,0.00083503,0.01345372,0.00776603,0.32439624,0.00130471,
 0.00073593,-0.00070802,0.00113647,0.00021688,-0.00033139,0.00044073,0.
 00061245,0.00018824,-0.00313686,0.00466458,-0.00320692,-0.02216655,-0.
 01318149,0.01039984,-0.21638681,-0.09749470,0.07357137,0.00005724,-0.0
 0013202,0.00003442,-0.00002413,0.00003223,0.00006689,0.00003783,0.0001
 1740,0.00012238,0.00014125,-0.00020791,-0.00037691,0.00057985,-0.00045
 603,-0.00018374,0.00030270,0.00015417,0.00006780,-0.00159682,-0.001061
 16,0.00043614,0.00081726,0.00031896,0.00045181,0.00103696,-0.00038857,
 -0.00047533,0.00162234,0.00122676,-0.00013671,0.23584705,-0.02673291,-
 0.01498418,0.01241811,0.00219562,-0.00595417,-0.00351206,0.00061149,-0
 .00026478,0.00010871,0.00268394,-0.00168006,0.00146910,0.01429088,0.00
 849121,-0.00682269,-0.09749566,-0.10380252,0.04247496,-0.00013202,0.00
 020970,0.00001985,0.00034294,0.00019526,0.00003966,-0.00200494,-0.0010
 5193,0.00043295,0.00012852,0.00138080,-0.00033154,0.00045607,0.0008964
 1,0.00062810,-0.00015663,-0.00013170,0.00003817,0.00106117,0.00058272,
 -0.00011052,-0.00059314,0.00065901,-0.00047290,-0.00072500,0.00048520,
 -0.00016075,0.00122622,0.00020509,-0.00007859,0.10493151,0.11467636,-0
 .00988093,-0.00603853,0.00323705,0.00042821,-0.00175766,-0.00034284,0.
 00011156,0.00006470,-0.00001350,-0.00130906,0.00124976,-0.00034236,-0.
 01016864,-0.00553751,0.00323665,0.07461018,0.04307717,-0.08235240,0.00
 003442,0.00001985,-0.00002073,-0.00028871,-0.00029050,0.00038845,-0.00
 031378,-0.00032245,0.00045597,-0.00039118,0.00054503,0.00063293,0.0001
 8364,0.00062773,0.00010056,-0.00039581,-0.00010481,0.00038832,-0.00043
 614,-0.00011049,0.00045597,0.00063581,-0.00015493,0.00010056,0.0002774
 5,-0.00061225,0.00063274,0.02672948,0.01543202,-0.01146458,-0.07983926
 ,-0.04609412,0.08493199,0.00176277,-0.00011783,-0.00127167,-0.00257029
 ,0.00000154,-0.02910852,-0.05082896,-0.00228651,-0.01025186,-0.0005240
 7,0.00027901,0.00099594,0.00012438,0.00002469,-0.00101678,-0.00021480,
 -0.00000679,0.00010647,0.00162234,0.00122622,0.02672948,-0.00455315,0.
 00276222,-0.00202941,0.00110529,-0.00034868,0.00066760,-0.00033262,-0.
 00012305,0.00074528,0.00030287,0.00015656,0.00039593,0.00096220,0.0004
 2207,-0.00013704,0.00014095,-0.00012874,0.00039150,-0.00002204,0.00003
 332,0.00010714,0.00011110,-0.00013313,0.00002503,0.00003010,0.00010626
 ,0.00018494,-0.00001405,-0.00008854,0.00001226,0.05289801,-0.00090426,
 0.00017102,-0.00043510,0.00147290,-0.00067909,0.01793360,-0.00230380,-
 0.04811902,-0.00591558,-0.00118740,-0.00274344,-0.03416599,0.00082505,
 0.00179399,-0.00088977,-0.00000808,-0.00020321,0.00006191,0.00122676,0
 .00020509,0.01543202,0.00360620,-0.00087616,0.00101369,-0.00068511,0.0
 0041676,0.00006625,0.00012791,0.00026181,-0.00039570,-0.00015415,-0.00
 013173,-0.00010478,-0.00042192,-0.00639151,-0.00226461,0.00020769,0.00
 138121,0.00054640,0.00034411,0.00019303,0.00039519,-0.00038409,-0.0001
 8191,0.00084260,0.00010626,-0.00009251,0.00010680,-0.00008844,0.000088
 19,0.00000715,-0.00177929,0.05490720,0.00089244,-0.00019800,0.00022581
 ,-0.00079005,0.00059940,-0.01093086,-0.01074342,-0.00619046,-0.2966571
 0,0.00012146,-0.00099351,-0.01093163,0.00027273,0.00087017,0.00022710,
 -0.00017070,-0.00009697,0.00022562,-0.00013671,-0.00007859,-0.01146458
 ,-0.00189269,0.00125098,0.00083503,-0.00009867,0.00049218,0.00063293,-
 0.00074223,-0.00039962,0.00060094,-0.00006779,0.00003810,0.00038845,0.
 00013682,-0.00226437,0.00083503,0.00037688,-0.00033127,0.00063274,-0.0
 0000084,-0.00007780,0.00038832,-0.00071533,-0.00044758,0.00060094,0.00
 018494,0.00010680,0.00002009,-0.00008033,-0.00004639,-0.00002482,0.013
 45372,0.00776603,0.32439624\\-0.00001365,-0.00000470,0.00001844,-0.000
 01089,0.00000947,-0.00001844,0.00000276,0.00001417,0.00001844,0.000013
 65,0.00000470,-0.00001844,0.00001089,-0.00000947,0.00001844,-0.0000027
 6,-0.00001417,-0.00001844,0.00000211,0.00000089,-0.00000847,-0.0000018
 0,-0.00000283,0.00000101,0.00000029,0.00000227,0.00000847,0.00000155,-
 0.00000297,-0.00000101,-0.00000182,0.00000138,-0.00000847,-0.00000155,
 0.00000297,0.00000101,0.00000182,-0.00000138,0.00000847,-0.00000029,-0
 .00000227,-0.00000847,0.00000180,0.00000283,-0.00000101,0.00000335,-0.
 00000014,0.00000101,-0.00000211,-0.00000089,0.00000847,-0.00000335,0.0
 0000014,-0.00000101\\\@


 LIVE PURE, SPEAK TRUE, RIGHT WRONG, FOLLOW THE KING...
 ELSE, WHEREFORE BORN......
           IDYLLS OF THE KING, TENNYSON
 Job cpu time:       0 days  0 hours  6 minutes 37.6 seconds.
 Elapsed time:       0 days  0 hours  0 minutes 28.8 seconds.
 File lengths (MBytes):  RWF=     19 Int=      0 D2E=      0 Chk=      8 Scr=      1
 Normal termination of Gaussian 16 at Sat Aug 10 16:34:16 2019.
