 Entering Gaussian System, Link 0=/software/sse/easybuild/prefix/software/Gaussian/16.B.01-avx2-nsc1-bdist/g16/g16.orig
 Input=freq-hp.wrap
 Output=freq-hp.log
 Initial command:
 /software/sse/easybuild/prefix/software/Gaussian/16.B.01-avx2-nsc1-bdist/g16/l1.exe "/scratch/local/Gau-285037.inp" -scrdir="/scratch/local/"
 Default is to use a total of  16 processors:
                               16 via shared-memory
                                1 via Linda
 Entering Link 1 = /software/sse/easybuild/prefix/software/Gaussian/16.B.01-avx2-nsc1-bdist/g16/l1.exe PID=    285043.
  
 Copyright (c) 1988-2017, Gaussian, Inc.  All Rights Reserved.
  
 This is part of the Gaussian(R) 16 program.  It is based on
 the Gaussian(R) 09 system (copyright 2009, Gaussian, Inc.),
 the Gaussian(R) 03 system (copyright 2003, Gaussian, Inc.),
 the Gaussian(R) 98 system (copyright 1998, Gaussian, Inc.),
 the Gaussian(R) 94 system (copyright 1995, Gaussian, Inc.),
 the Gaussian 92(TM) system (copyright 1992, Gaussian, Inc.),
 the Gaussian 90(TM) system (copyright 1990, Gaussian, Inc.),
 the Gaussian 88(TM) system (copyright 1988, Gaussian, Inc.),
 the Gaussian 86(TM) system (copyright 1986, Carnegie Mellon
 University), and the Gaussian 82(TM) system (copyright 1983,
 Carnegie Mellon University). Gaussian is a federally registered
 trademark of Gaussian, Inc.
  
 This software contains proprietary and confidential information,
 including trade secrets, belonging to Gaussian, Inc.
  
 This software is provided under written license and may be
 used, copied, transmitted, or stored only in accord with that
 written license.
  
 The following legend is applicable only to US Government
 contracts under FAR:
  
                    RESTRICTED RIGHTS LEGEND
  
 Use, reproduction and disclosure by the US Government is
 subject to restrictions as set forth in subparagraphs (a)
 and (c) of the Commercial Computer Software - Restricted
 Rights clause in FAR 52.227-19.
  
 Gaussian, Inc.
 340 Quinnipiac St., Bldg. 40, Wallingford CT 06492
  
  
 ---------------------------------------------------------------
 Warning -- This program may not be used in any manner that
 competes with the business of Gaussian, Inc. or will provide
 assistance to any competitor of Gaussian, Inc.  The licensee
 of this program is prohibited from giving any competitor of
 Gaussian, Inc. access to this program.  By using this program,
 the user acknowledges that Gaussian, Inc. is engaged in the
 business of creating and licensing software in the field of
 computational chemistry and represents and warrants to the
 licensee that it is not a competitor of Gaussian, Inc. and that
 it will not use this program in any manner prohibited above.
 ---------------------------------------------------------------
  

 Cite this work as:
 Gaussian 16, Revision B.01,
 M. J. Frisch, G. W. Trucks, H. B. Schlegel, G. E. Scuseria, 
 M. A. Robb, J. R. Cheeseman, G. Scalmani, V. Barone, 
 G. A. Petersson, H. Nakatsuji, X. Li, M. Caricato, A. V. Marenich, 
 J. Bloino, B. G. Janesko, R. Gomperts, B. Mennucci, H. P. Hratchian, 
 J. V. Ortiz, A. F. Izmaylov, J. L. Sonnenberg, D. Williams-Young, 
 F. Ding, F. Lipparini, F. Egidi, J. Goings, B. Peng, A. Petrone, 
 T. Henderson, D. Ranasinghe, V. G. Zakrzewski, J. Gao, N. Rega, 
 G. Zheng, W. Liang, M. Hada, M. Ehara, K. Toyota, R. Fukuda, 
 J. Hasegawa, M. Ishida, T. Nakajima, Y. Honda, O. Kitao, H. Nakai, 
 T. Vreven, K. Throssell, J. A. Montgomery, Jr., J. E. Peralta, 
 F. Ogliaro, M. J. Bearpark, J. J. Heyd, E. N. Brothers, K. N. Kudin, 
 V. N. Staroverov, T. A. Keith, R. Kobayashi, J. Normand, 
 K. Raghavachari, A. P. Rendell, J. C. Burant, S. S. Iyengar, 
 J. Tomasi, M. Cossi, J. M. Millam, M. Klene, C. Adamo, R. Cammi, 
 J. W. Ochterski, R. L. Martin, K. Morokuma, O. Farkas, 
 J. B. Foresman, and D. J. Fox, Gaussian, Inc., Wallingford CT, 2016.
 
 ******************************************
 Gaussian 16:  ES64L-G16RevB.01 20-Dec-2017
                10-Aug-2019 
 ******************************************
 %chk=freq.chk
 ----------------------------------------------------------------------
 # freq(hpmodes,intmodes) iop(1/33=3) b3lyp/6-31g(d,p) geom=connectivit
 y iop(7/75=-1)
 ----------------------------------------------------------------------
 1/10=4,18=20,30=1,33=3,38=1,57=2/1,3;
 2/9=110,12=2,17=6,18=5,40=1/2;
 3/5=1,6=6,7=101,11=2,25=1,30=1,71=2,74=-5,140=1/1,2,3;
 4//1;
 5/5=2,38=5,98=1/2;
 8/6=4,10=90,11=11/1;
 11/6=1,8=1,9=11,15=111,16=1/1,2,10;
 10/6=1/2;
 6/7=2,8=2,9=2,10=2,28=1/1;
 7/8=31,10=1,25=1,75=-1/1,2,3,16;
 1/10=4,18=20,30=1,33=3/3;
 99//99;
 ONIOM results not found on unit 2.
 ----
 name
 ----
 TstMul:  ICh=     0
 TstMul:  Mul=     1
 TstMul:  ICh=     0
 TstMul:  Mul=     1
 Symbolic Z-matrix:
 Charge =  0 Multiplicity = 1
 C                     0.        0.87079   0. 
 C                     0.75412  -0.43539   0. 
 C                    -0.75412  -0.43539   0. 
 H                     0.        1.46229   0.91047 
 H                     0.        1.46229  -0.91047 
 H                     1.26638  -0.73115   0.91047 
 H                     1.26638  -0.73115  -0.91047 
 H                    -1.26638  -0.73115  -0.91047 
 H                    -1.26638  -0.73115   0.91047 
 
 RdStrC is calling ZToCFu for IStruc=1 NZ=     9.
                                ZToCFu                                
 ---------------------------------------------------------------------
 Center     Atomic      Atomic             Coordinates (Angstroms)
 Number     Number       Type             X           Y           Z
 ---------------------------------------------------------------------
      1          6           0        0.000000    0.870786    0.000000
      2          6           0        0.754123   -0.435393    0.000000
      3          6           0       -0.754123   -0.435393    0.000000
      4          1           0        0.000000    1.462293    0.910469
      5          1           0        0.000000    1.462293   -0.910469
      6          1           0        1.266383   -0.731146    0.910469
      7          1           0        1.266383   -0.731146   -0.910469
      8          1           0       -1.266383   -0.731146   -0.910469
      9          1           0       -1.266383   -0.731146    0.910469
 ---------------------------------------------------------------------
 Connectivity in DoCon:
 I=     1 IAn=  6 IBond, RBType=     2  1.00     3  1.00     4  1.00     5  1.00
 I=     2 IAn=  6 IBond, RBType=     1  1.00     3  1.00     6  1.00     7  1.00
 I=     3 IAn=  6 IBond, RBType=     1  1.00     2  1.00     8  1.00     9  1.00
 I=     4 IAn=  1 IBond, RBType=     1  1.00
 I=     5 IAn=  1 IBond, RBType=     1  1.00
 I=     6 IAn=  1 IBond, RBType=     2  1.00
 I=     7 IAn=  1 IBond, RBType=     2  1.00
 I=     8 IAn=  1 IBond, RBType=     3  1.00
 I=     9 IAn=  1 IBond, RBType=     3  1.00
 After GenITR:
 ITRead=  0  0  0  0  0  0  0  0  0
 MicOpt= -1 -1 -1 -1 -1 -1 -1 -1 -1
 List IsCon N=      9 M=      2:
 I=      1 Vals=      2      1 |      3      1 |      4      1 |      5      1 |
 I=      2 Vals=      1      1 |      3      1 |      6      1 |      7      1 |
 I=      3 Vals=      1      1 |      2      1 |      8      1 |      9      1 |
 I=      4 Vals=      1      1 |
 I=      5 Vals=      1      1 |
 I=      6 Vals=      2      1 |
 I=      7 Vals=      2      1 |
 I=      8 Vals=      3      1 |
 I=      9 Vals=      3      1 |
 Coordinate R1 contains atom 1 which is already in QM block.
 Coordinate R1 contains atom 2 which is already in QM block.
 Coordinate R2 contains atom 1 which is already in QM block.
 Coordinate R2 contains atom 3 which is already in QM block.
 Coordinate R3 contains atom 1 which is already in QM block.
 Coordinate R3 contains atom 4 which is already in QM block.
 Coordinate R4 contains atom 1 which is already in QM block.
 Coordinate R4 contains atom 5 which is already in QM block.
 Coordinate R5 contains atom 2 which is already in QM block.
 Coordinate R5 contains atom 3 which is already in QM block.
 Coordinate R6 contains atom 2 which is already in QM block.
 Coordinate R6 contains atom 6 which is already in QM block.
 Coordinate R7 contains atom 2 which is already in QM block.
 Coordinate R7 contains atom 7 which is already in QM block.
 Coordinate R8 contains atom 3 which is already in QM block.
 Coordinate R8 contains atom 8 which is already in QM block.
 Coordinate R9 contains atom 3 which is already in QM block.
 Coordinate R9 contains atom 9 which is already in QM block.
 Coordinate A1 contains atom 2 which is already in QM block.
 Coordinate A1 contains atom 1 which is already in QM block.
 Coordinate A1 contains atom 1 which is already in QM block.
 Coordinate A2 contains atom 2 which is already in QM block.
 Coordinate A2 contains atom 1 which is already in QM block.
 Coordinate A2 contains atom 1 which is already in QM block.
 Coordinate A3 contains atom 3 which is already in QM block.
 Coordinate A3 contains atom 1 which is already in QM block.
 Coordinate A3 contains atom 1 which is already in QM block.
 Coordinate A4 contains atom 3 which is already in QM block.
 Coordinate A4 contains atom 1 which is already in QM block.
 Coordinate A4 contains atom 1 which is already in QM block.
 Coordinate A5 contains atom 4 which is already in QM block.
 Coordinate A5 contains atom 1 which is already in QM block.
 Coordinate A5 contains atom 1 which is already in QM block.
 Coordinate A6 contains atom 1 which is already in QM block.
 Coordinate A6 contains atom 2 which is already in QM block.
 Coordinate A6 contains atom 2 which is already in QM block.
 Coordinate A7 contains atom 1 which is already in QM block.
 Coordinate A7 contains atom 2 which is already in QM block.
 Coordinate A7 contains atom 2 which is already in QM block.
 Coordinate A8 contains atom 3 which is already in QM block.
 Coordinate A8 contains atom 2 which is already in QM block.
 Coordinate A8 contains atom 2 which is already in QM block.
 Coordinate A9 contains atom 3 which is already in QM block.
 Coordinate A9 contains atom 2 which is already in QM block.
 Coordinate A9 contains atom 2 which is already in QM block.
 Coordinate A10 contains atom 6 which is already in QM block.
 Coordinate A10 contains atom 2 which is already in QM block.
 Coordinate A10 contains atom 2 which is already in QM block.
 Coordinate A11 contains atom 1 which is already in QM block.
 Coordinate A11 contains atom 3 which is already in QM block.
 Coordinate A11 contains atom 3 which is already in QM block.
 Coordinate A12 contains atom 1 which is already in QM block.
 Coordinate A12 contains atom 3 which is already in QM block.
 Coordinate A12 contains atom 3 which is already in QM block.
 Coordinate A13 contains atom 2 which is already in QM block.
 Coordinate A13 contains atom 3 which is already in QM block.
 Coordinate A13 contains atom 3 which is already in QM block.
 Coordinate A14 contains atom 2 which is already in QM block.
 Coordinate A14 contains atom 3 which is already in QM block.
 Coordinate A14 contains atom 3 which is already in QM block.
 Coordinate A15 contains atom 8 which is already in QM block.
 Coordinate A15 contains atom 3 which is already in QM block.
 Coordinate A15 contains atom 3 which is already in QM block.
 Coordinate D1 contains atom 4 which is already in QM block.
 Coordinate D1 contains atom 1 which is already in QM block.
 Coordinate D1 contains atom 2 which is already in QM block.
 Coordinate D1 contains atom 6 which is already in QM block.
 Coordinate D2 contains atom 4 which is already in QM block.
 Coordinate D2 contains atom 1 which is already in QM block.
 Coordinate D2 contains atom 2 which is already in QM block.
 Coordinate D2 contains atom 7 which is already in QM block.
 Coordinate D3 contains atom 5 which is already in QM block.
 Coordinate D3 contains atom 1 which is already in QM block.
 Coordinate D3 contains atom 2 which is already in QM block.
 Coordinate D3 contains atom 6 which is already in QM block.
 Coordinate D4 contains atom 5 which is already in QM block.
 Coordinate D4 contains atom 1 which is already in QM block.
 Coordinate D4 contains atom 2 which is already in QM block.
 Coordinate D4 contains atom 7 which is already in QM block.
 Coordinate D5 contains atom 4 which is already in QM block.
 Coordinate D5 contains atom 1 which is already in QM block.
 Coordinate D5 contains atom 3 which is already in QM block.
 Coordinate D5 contains atom 8 which is already in QM block.
 Coordinate D6 contains atom 4 which is already in QM block.
 Coordinate D6 contains atom 1 which is already in QM block.
 Coordinate D6 contains atom 3 which is already in QM block.
 Coordinate D6 contains atom 9 which is already in QM block.
 Coordinate D7 contains atom 5 which is already in QM block.
 Coordinate D7 contains atom 1 which is already in QM block.
 Coordinate D7 contains atom 3 which is already in QM block.
 Coordinate D7 contains atom 8 which is already in QM block.
 Coordinate D8 contains atom 5 which is already in QM block.
 Coordinate D8 contains atom 1 which is already in QM block.
 Coordinate D8 contains atom 3 which is already in QM block.
 Coordinate D8 contains atom 9 which is already in QM block.
 Coordinate D9 contains atom 6 which is already in QM block.
 Coordinate D9 contains atom 2 which is already in QM block.
 Coordinate D9 contains atom 3 which is already in QM block.
 Coordinate D9 contains atom 8 which is already in QM block.
 Coordinate D10 contains atom 6 which is already in QM block.
 Coordinate D10 contains atom 2 which is already in QM block.
 Coordinate D10 contains atom 3 which is already in QM block.
 Coordinate D10 contains atom 9 which is already in QM block.
 Coordinate D11 contains atom 7 which is already in QM block.
 Coordinate D11 contains atom 2 which is already in QM block.
 Coordinate D11 contains atom 3 which is already in QM block.
 Coordinate D11 contains atom 8 which is already in QM block.
 Coordinate D12 contains atom 7 which is already in QM block.
 Coordinate D12 contains atom 2 which is already in QM block.
 Coordinate D12 contains atom 3 which is already in QM block.
 Coordinate D12 contains atom 9 which is already in QM block.
 Saved connectivity
 I=     1 IAn=  6 IBond, RBType=     2  1.00     3  1.00     4  1.00     5  1.00
 I=     2 IAn=  6 IBond, RBType=     1  1.00     3  1.00     6  1.00     7  1.00
 I=     3 IAn=  6 IBond, RBType=     1  1.00     2  1.00     8  1.00     9  1.00
 I=     4 IAn=  1 IBond, RBType=     1  1.00
 I=     5 IAn=  1 IBond, RBType=     1  1.00
 I=     6 IAn=  1 IBond, RBType=     2  1.00
 I=     7 IAn=  1 IBond, RBType=     2  1.00
 I=     8 IAn=  1 IBond, RBType=     3  1.00
 I=     9 IAn=  1 IBond, RBType=     3  1.00
 ITRead=  0  0  0  0  0  0  0  0  0
 MicOpt= -1 -1 -1 -1 -1 -1 -1 -1 -1
 NAtoms=      9 NQM=        9 NQMF=       0 NMMI=      0 NMMIF=      0
                NMic=       0 NMicF=      0.
 No MM parameters found.
 Leave Link  101 at Sat Aug 10 16:33:25 2019, MaxMem=  4294967296 cpu:               5.8 elap:               0.4

 GradGradGradGradGradGradGradGradGradGradGradGradGradGradGradGradGradGrad
 Berny optimization.
 GetPCM: File not found, return IValue=0.
 Optmz: redundant internal coordinate code flag= 1
 Initialization pass.
                           ----------------------------
                           !    Initial Parameters    !
                           ! (Angstroms and Degrees)  !
 --------------------------                            --------------------------
 ! Name  Definition              Value          Derivative Info.                !
 --------------------------------------------------------------------------------
 ! R1    R(1,2)                  1.5082         calculate D2E/DX2 analytically  !
 ! R2    R(1,3)                  1.5082         calculate D2E/DX2 analytically  !
 ! R3    R(1,4)                  1.0857         calculate D2E/DX2 analytically  !
 ! R4    R(1,5)                  1.0857         calculate D2E/DX2 analytically  !
 ! R5    R(2,3)                  1.5082         calculate D2E/DX2 analytically  !
 ! R6    R(2,6)                  1.0857         calculate D2E/DX2 analytically  !
 ! R7    R(2,7)                  1.0857         calculate D2E/DX2 analytically  !
 ! R8    R(3,8)                  1.0857         calculate D2E/DX2 analytically  !
 ! R9    R(3,9)                  1.0857         calculate D2E/DX2 analytically  !
 ! A1    A(2,1,4)              118.1516         calculate D2E/DX2 analytically  !
 ! A2    A(2,1,5)              118.1516         calculate D2E/DX2 analytically  !
 ! A3    A(3,1,4)              118.1516         calculate D2E/DX2 analytically  !
 ! A4    A(3,1,5)              118.1516         calculate D2E/DX2 analytically  !
 ! A5    A(4,1,5)              113.9786         calculate D2E/DX2 analytically  !
 ! A6    A(1,2,6)              118.1516         calculate D2E/DX2 analytically  !
 ! A7    A(1,2,7)              118.1516         calculate D2E/DX2 analytically  !
 ! A8    A(3,2,6)              118.1516         calculate D2E/DX2 analytically  !
 ! A9    A(3,2,7)              118.1516         calculate D2E/DX2 analytically  !
 ! A10   A(6,2,7)              113.9787         calculate D2E/DX2 analytically  !
 ! A11   A(1,3,8)              118.1516         calculate D2E/DX2 analytically  !
 ! A12   A(1,3,9)              118.1516         calculate D2E/DX2 analytically  !
 ! A13   A(2,3,8)              118.1516         calculate D2E/DX2 analytically  !
 ! A14   A(2,3,9)              118.1516         calculate D2E/DX2 analytically  !
 ! A15   A(8,3,9)              113.9787         calculate D2E/DX2 analytically  !
 ! D1    D(4,1,2,6)              0.0            calculate D2E/DX2 analytically  !
 ! D2    D(4,1,2,7)           -144.0086         calculate D2E/DX2 analytically  !
 ! D3    D(5,1,2,6)            144.0086         calculate D2E/DX2 analytically  !
 ! D4    D(5,1,2,7)              0.0            calculate D2E/DX2 analytically  !
 ! D5    D(4,1,3,8)            144.0086         calculate D2E/DX2 analytically  !
 ! D6    D(4,1,3,9)              0.0            calculate D2E/DX2 analytically  !
 ! D7    D(5,1,3,8)              0.0            calculate D2E/DX2 analytically  !
 ! D8    D(5,1,3,9)           -144.0086         calculate D2E/DX2 analytically  !
 ! D9    D(6,2,3,8)           -144.0087         calculate D2E/DX2 analytically  !
 ! D10   D(6,2,3,9)              0.0            calculate D2E/DX2 analytically  !
 ! D11   D(7,2,3,8)              0.0            calculate D2E/DX2 analytically  !
 ! D12   D(7,2,3,9)            144.0087         calculate D2E/DX2 analytically  !
 --------------------------------------------------------------------------------
 Maximum allowed force set to 1.00D+20.
 Trust Radius=3.00D-01 FncErr=1.00D-07 GrdErr=1.00D-07 EigMax=2.50D+02 EigMin=1.00D-04
 Number of steps in this run=      2 maximum allowed number of steps=      2.
 GradGradGradGradGradGradGradGradGradGradGradGradGradGradGradGradGradGrad

 Leave Link  103 at Sat Aug 10 16:33:25 2019, MaxMem=  4294967296 cpu:               0.8 elap:               0.1
                          Input orientation:                          
 ---------------------------------------------------------------------
 Center     Atomic      Atomic             Coordinates (Angstroms)
 Number     Number       Type             X           Y           Z
 ---------------------------------------------------------------------
      1          6           0        0.000000    0.870786    0.000000
      2          6           0        0.754123   -0.435393    0.000000
      3          6           0       -0.754123   -0.435393    0.000000
      4          1           0        0.000000    1.462293    0.910469
      5          1           0        0.000000    1.462293   -0.910469
      6          1           0        1.266383   -0.731146    0.910469
      7          1           0        1.266383   -0.731146   -0.910469
      8          1           0       -1.266383   -0.731146   -0.910469
      9          1           0       -1.266383   -0.731146    0.910469
 ---------------------------------------------------------------------
                    Distance matrix (angstroms):
                    1          2          3          4          5
     1  C    0.000000
     2  C    1.508246   0.000000
     3  C    1.508246   1.508246   0.000000
     4  H    1.085741   2.235815   2.235815   0.000000
     5  H    1.085741   2.235815   2.235815   1.820938   0.000000
     6  H    2.235814   1.085741   2.235815   2.532765   3.119410
     7  H    2.235814   1.085741   2.235815   3.119410   2.532765
     8  H    2.235814   2.235815   1.085741   3.119410   2.532765
     9  H    2.235814   2.235815   1.085741   2.532765   3.119410
                    6          7          8          9
     6  H    0.000000
     7  H    1.820938   0.000000
     8  H    3.119410   2.532766   0.000000
     9  H    2.532766   3.119410   1.820938   0.000000
 Stoichiometry    C3H6
 Framework group  D3H[3C2(C),3SGV(H2)]
 Deg. of freedom     3
 Full point group                 D3H     NOp  12
 Largest Abelian subgroup         C2V     NOp   4
 Largest concise Abelian subgroup C2V     NOp   4
                         Standard orientation:                         
 ---------------------------------------------------------------------
 Center     Atomic      Atomic             Coordinates (Angstroms)
 Number     Number       Type             X           Y           Z
 ---------------------------------------------------------------------
      1          6           0        0.000000    0.870786    0.000000
      2          6           0        0.754123   -0.435393    0.000000
      3          6           0       -0.754123   -0.435393    0.000000
      4          1           0        0.000000    1.462293    0.910469
      5          1           0        0.000000    1.462293   -0.910469
      6          1           0        1.266383   -0.731146    0.910469
      7          1           0        1.266383   -0.731146   -0.910469
      8          1           0       -1.266383   -0.731146   -0.910469
      9          1           0       -1.266383   -0.731146    0.910469
 ---------------------------------------------------------------------
 Rotational constants (GHZ):          20.1133330          20.1133330          12.5629140
 Standard basis: 6-31G(d,p) (6D, 7F)
 There are    28 symmetry adapted cartesian basis functions of A1  symmetry.
 There are    11 symmetry adapted cartesian basis functions of A2  symmetry.
 There are    20 symmetry adapted cartesian basis functions of B1  symmetry.
 There are    16 symmetry adapted cartesian basis functions of B2  symmetry.
 There are    28 symmetry adapted basis functions of A1  symmetry.
 There are    11 symmetry adapted basis functions of A2  symmetry.
 There are    20 symmetry adapted basis functions of B1  symmetry.
 There are    16 symmetry adapted basis functions of B2  symmetry.
    75 basis functions,   126 primitive gaussians,    75 cartesian basis functions
    12 alpha electrons       12 beta electrons
       nuclear repulsion energy        75.6227963987 Hartrees.
 NAtoms=    9 NActive=    9 NUniq=    2 SFac= 4.00D+00 NAtFMM=   60 NAOKFM=F Big=F
 Integral buffers will be    131072 words long.
 Raffenetti 2 integral format.
 Two-electron integral symmetry is turned on.
 One-electron integrals computed using PRISM.
 NBasis=    75 RedAO= T EigKep=  7.07D-03  NBF=    28    11    20    16
 NBsUse=    75 1.00D-06 EigRej= -1.00D+00 NBFU=    28    11    20    16
 ExpMin= 1.61D-01 ExpMax= 3.05D+03 ExpMxC= 4.57D+02 IAcc=3 IRadAn=         5 AccDes= 0.00D+00
 Harris functional with IExCor=  402 and IRadAn=       5 diagonalized for initial guess.
 HarFok:  IExCor=  402 AccDes= 0.00D+00 IRadAn=         5 IDoV= 1 UseB2=F ITyADJ=14
 ICtDFT=  3500011 ScaDFX=  1.000000  1.000000  1.000000  1.000000
 FoFCou: FMM=F IPFlag=           0 FMFlag=      100000 FMFlg1=           0
         NFxFlg=           0 DoJE=T BraDBF=F KetDBF=T FulRan=T
         wScrn=  0.000000 ICntrl=       500 IOpCl=  0 I1Cent=   200000004 NGrid=           0
         NMat0=    1 NMatS0=      1 NMatT0=    0 NMatD0=    1 NMtDS0=    0 NMtDT0=    0
 Petite list used in FoFCou.
 Initial guess orbital symmetries:
       Occupied  (A1') (E') (E') (A1') (E') (E') (A2") (A1') (E")
                 (E") (E') (E')
       Virtual   (A2') (A2") (A1') (E') (E') (E') (E') (E") (E")
                 (A1') (A2") (E') (E') (E') (E') (A1') (A2') (E")
                 (E") (A2") (E") (E") (E') (E') (A1') (E') (E')
                 (A1') (A1") (E") (E") (E') (E') (A2") (A1') (E")
                 (E") (E') (E') (A2") (E') (E') (E") (E") (A2')
                 (E') (E') (E") (E") (A1') (A2') (A1") (E') (E')
                 (A1') (A2") (E') (E') (E") (E") (A1') (E') (E')
 The electronic state of the initial guess is 1-A1'.
 Keep R1 ints in memory in symmetry-blocked form, NReq=18434668.
 Requested convergence on RMS density matrix=1.00D-08 within 128 cycles.
 Requested convergence on MAX density matrix=1.00D-06.
 Requested convergence on             energy=1.00D-06.
 No special actions if energy rises.
 Integral accuracy reduced to 1.0D-05 until final iterations.
 Initial convergence to 1.0D-05 achieved.  Increase integral accuracy.
 SCF Done:  E(RB3LYP) =  -117.904157051     A.U. after    9 cycles
            NFock=  9  Conv=0.23D-08     -V/T= 2.0105
 DoSCS=F DFT=T ScalE2(SS,OS)=  1.000000  1.000000
 Range of M.O.s used for correlation:     1    75
 NBasis=    75 NAE=    12 NBE=    12 NFC=     0 NFV=     0
 NROrb=     75 NOA=    12 NOB=    12 NVA=    63 NVB=    63
 Symmetrizing basis deriv contribution to polar:
 IMax=3 JMax=2 DiffMx= 0.00D+00
 G2DrvN: will do    10 centers at a time, making    1 passes.
 Calling FoFCou, ICntrl=  3107 FMM=F I1Cent=   0 AccDes= 0.00D+00.
 End of G2Drv F.D. properties file   721 does not exist.
 End of G2Drv F.D. properties file   722 does not exist.
 End of G2Drv F.D. properties file   788 does not exist.
          IDoAtm=111111111
          Differentiating once with respect to electric field.
                with respect to dipole field.
          Differentiating once with respect to nuclear coordinates.
 Keep R1 ints in memory in symmetry-blocked form, NReq=18387159.
          There are     9 degrees of freedom in the 1st order CPHF.  IDoFFX=4 NUNeed=     9.
      9 vectors produced by pass  0 Test12= 8.40D-15 1.11D-08 XBig12= 1.81D+01 2.58D+00.
 AX will form     9 AO Fock derivatives at one time.
      9 vectors produced by pass  1 Test12= 8.40D-15 1.11D-08 XBig12= 2.58D+00 5.94D-01.
      9 vectors produced by pass  2 Test12= 8.40D-15 1.11D-08 XBig12= 8.58D-02 1.19D-01.
      9 vectors produced by pass  3 Test12= 8.40D-15 1.11D-08 XBig12= 1.03D-03 1.08D-02.
      9 vectors produced by pass  4 Test12= 8.40D-15 1.11D-08 XBig12= 1.12D-05 7.63D-04.
      9 vectors produced by pass  5 Test12= 8.40D-15 1.11D-08 XBig12= 1.02D-07 6.65D-05.
      5 vectors produced by pass  6 Test12= 8.40D-15 1.11D-08 XBig12= 4.32D-10 5.16D-06.
      2 vectors produced by pass  7 Test12= 8.40D-15 1.11D-08 XBig12= 8.09D-13 3.11D-07.
 InvSVY:  IOpt=1 It=  1 EMax= 8.88D-16
 Solved reduced A of dimension    61 with     9 vectors.
 Isotropic polarizability for W=    0.000000       30.01 Bohr**3.
 End of Minotr F.D. properties file   721 does not exist.
 End of Minotr F.D. properties file   722 does not exist.
 End of Minotr F.D. properties file   788 does not exist.

 **********************************************************************

            Population analysis using the SCF Density.

 **********************************************************************

 Orbital symmetries:
       Occupied  (A1') (E') (E') (A1') (E') (E') (A2") (A1') (E")
                 (E") (E') (E')
       Virtual   (A1') (A2") (A2') (E') (E') (E") (E") (E') (E')
                 (A1') (A2") (E') (E') (E') (E') (A1') (A2') (E")
                 (E") (A2") (E") (E") (E') (E') (A1') (E') (E')
                 (A1') (A1") (E") (E") (E') (E') (A2") (A1') (E")
                 (E") (E') (E') (A2") (E') (E') (E") (E") (A2')
                 (E') (E') (A1') (E") (E") (A1") (A2') (E') (E')
                 (A1') (A2") (E') (E') (E") (E") (A1') (E') (E')
 The electronic state is 1-A1'.
 Alpha  occ. eigenvalues --  -10.18231 -10.18194 -10.18194  -0.84214  -0.59141
 Alpha  occ. eigenvalues --   -0.59141  -0.48650  -0.46016  -0.35789  -0.35789
 Alpha  occ. eigenvalues --   -0.28813  -0.28813
 Alpha virt. eigenvalues --    0.10556   0.11034   0.15426   0.15641   0.15641
 Alpha virt. eigenvalues --    0.23241   0.23241   0.26203   0.26203   0.46914
 Alpha virt. eigenvalues --    0.54272   0.56011   0.56011   0.63203   0.63203
 Alpha virt. eigenvalues --    0.68844   0.70296   0.76326   0.76326   0.84476
 Alpha virt. eigenvalues --    0.90559   0.90559   0.92354   0.92354   0.93972
 Alpha virt. eigenvalues --    1.26974   1.26974   1.54653   1.61050   1.61620
 Alpha virt. eigenvalues --    1.61620   1.76933   1.76933   1.83168   2.01572
 Alpha virt. eigenvalues --    2.08324   2.08324   2.17121   2.17121   2.20732
 Alpha virt. eigenvalues --    2.26139   2.26139   2.35296   2.35296   2.38558
 Alpha virt. eigenvalues --    2.52679   2.52679   2.68414   2.69088   2.69088
 Alpha virt. eigenvalues --    2.83117   2.84846   2.95163   2.95163   3.17944
 Alpha virt. eigenvalues --    3.31452   3.38184   3.38184   3.58073   3.58073
 Alpha virt. eigenvalues --    4.21261   4.55664   4.55664
          Condensed to atoms (all electrons):
               1          2          3          4          5          6
     1  C    4.955940   0.281886   0.281886   0.396393   0.396393  -0.023469
     2  C    0.281886   4.955940   0.281886  -0.023469  -0.023469   0.396393
     3  C    0.281886   0.281886   4.955940  -0.023469  -0.023469  -0.023469
     4  H    0.396393  -0.023469  -0.023469   0.582879  -0.033638  -0.006334
     5  H    0.396393  -0.023469  -0.023469  -0.033638   0.582879   0.002330
     6  H   -0.023469   0.396393  -0.023469  -0.006334   0.002330   0.582879
     7  H   -0.023469   0.396393  -0.023469   0.002330  -0.006334  -0.033638
     8  H   -0.023469  -0.023469   0.396393   0.002330  -0.006334   0.002330
     9  H   -0.023469  -0.023469   0.396393  -0.006334   0.002330  -0.006334
               7          8          9
     1  C   -0.023469  -0.023469  -0.023469
     2  C    0.396393  -0.023469  -0.023469
     3  C   -0.023469   0.396393   0.396393
     4  H    0.002330   0.002330  -0.006334
     5  H   -0.006334  -0.006334   0.002330
     6  H   -0.033638   0.002330  -0.006334
     7  H    0.582879  -0.006334   0.002330
     8  H   -0.006334   0.582879  -0.033638
     9  H    0.002330  -0.033638   0.582879
 Mulliken charges:
               1
     1  C   -0.218624
     2  C   -0.218624
     3  C   -0.218624
     4  H    0.109312
     5  H    0.109312
     6  H    0.109312
     7  H    0.109312
     8  H    0.109312
     9  H    0.109312
 Sum of Mulliken charges =   0.00000
 Mulliken charges with hydrogens summed into heavy atoms:
               1
     1  C    0.000000
     2  C    0.000000
     3  C    0.000000
 APT charges:
               1
     1  C    0.026571
     2  C    0.026570
     3  C    0.026570
     4  H   -0.013284
     5  H   -0.013284
     6  H   -0.013285
     7  H   -0.013285
     8  H   -0.013285
     9  H   -0.013285
 Sum of APT charges =   0.00000
 APT charges with hydrogens summed into heavy atoms:
               1
     1  C    0.000002
     2  C    0.000000
     3  C    0.000000
 Electronic spatial extent (au):  <R**2>=            156.0449
 Charge=             -0.0000 electrons
 Dipole moment (field-independent basis, Debye):
    X=              0.0000    Y=              0.0000    Z=             -0.0000  Tot=              0.0000
 Quadrupole moment (field-independent basis, Debye-Ang):
   XX=            -20.2899   YY=            -20.2899   ZZ=            -18.2339
   XY=             -0.0000   XZ=             -0.0000   YZ=              0.0000
 Traceless Quadrupole moment (field-independent basis, Debye-Ang):
   XX=             -0.6853   YY=             -0.6853   ZZ=              1.3707
   XY=             -0.0000   XZ=             -0.0000   YZ=              0.0000
 Octapole moment (field-independent basis, Debye-Ang**2):
  XXX=              0.0000  YYY=              2.1717  ZZZ=              0.0000  XYY=              0.0000
  XXY=             -2.1717  XXZ=             -0.0000  XZZ=              0.0000  YZZ=              0.0000
  YYZ=              0.0000  XYZ=              0.0000
 Hexadecapole moment (field-independent basis, Debye-Ang**3):
 XXXX=            -85.3897 YYYY=            -85.3897 ZZZZ=            -39.0959 XXXY=              0.0000
 XXXZ=             -0.0000 YYYX=              0.0000 YYYZ=              0.0000 ZZZX=              0.0000
 ZZZY=             -0.0000 XXYY=            -28.4632 XXZZ=            -18.7976 YYZZ=            -18.7976
 XXYZ=              0.0000 YYXZ=             -0.0000 ZZXY=              0.0000
 N-N= 7.562279639869D+01 E-N=-4.233355856986D+02  KE= 1.166807019280D+02
 Symmetry A1   KE= 7.380722377754D+01
 Symmetry A2   KE= 2.099105972009D+00
 Symmetry B1   KE= 3.691090293331D+01
 Symmetry B2   KE= 3.863469245126D+00
  Exact polarizability:  30.279   0.000  30.279  -0.000  -0.000  29.463
 Approx polarizability:  40.033  -0.000  40.033  -0.000   0.000  39.517
 Calling FoFJK, ICntrl=    100127 FMM=F ISym2X=1 I1Cent= 0 IOpClX= 0 NMat=1 NMatS=1 NMatT=0.
 Full mass-weighted force constant matrix:
 Low frequencies ---  -14.0268  -14.0268   -7.2652   -0.0018   -0.0018   -0.0015
 Low frequencies ---  739.1727  739.1727  862.1935
 Diagonal vibrational polarizability:
        0.8276946       0.8276893       0.1166321
 Harmonic frequencies (cm**-1), IR intensities (KM/Mole), Raman scattering
 activities (A**4/AMU), depolarization ratios for plane and unpolarized
 incident light, reduced masses (AMU), force constants (mDyne/A),
 and normal coordinates:
                           1         2         3         4         5
                          E"        E"        A2"       E'        E'
       Frequencies ---   739.1727  739.1727  862.1935  892.3509  892.3509
    Reduced masses ---     1.0229    1.0229    1.0448    3.3949    3.3949
   Force constants ---     0.3293    0.3293    0.4576    1.5927    1.5927
    IR Intensities ---     0.0000    0.0000    0.5195   16.3749   16.3749
 Coord Atom Element:
   1     1     6          0.00000   0.00000  -0.00000  -0.15540  -0.19714
   2     1     6          0.00000  -0.00000  -0.00000  -0.22455   0.17701
   3     1     6          0.00530  -0.02980   0.03350   0.00000  -0.00000
   1     2     6         -0.00000   0.00000  -0.00000   0.27651  -0.02481
   2     2     6          0.00000   0.00000   0.00000  -0.05222  -0.25490
   3     2     6         -0.02846   0.01031   0.03350  -0.00000  -0.00000
   1     3     6         -0.00000  -0.00000   0.00000  -0.08869   0.26307
   2     3     6         -0.00000   0.00000   0.00000   0.23566   0.11030
   3     3     6          0.02316   0.01949   0.03350   0.00000   0.00000
   1     4     1          0.43537   0.07744  -0.00000  -0.27810  -0.35280
   2     4     1          0.05659  -0.31815   0.35541  -0.18960   0.14946
   3     4     1         -0.03177   0.17863  -0.19947  -0.02300   0.01813
   1     5     1         -0.43537  -0.07744   0.00000  -0.27810  -0.35280
   2     5     1         -0.05659   0.31815  -0.35541  -0.18960   0.14946
   3     5     1         -0.03177   0.17863  -0.19947   0.02300  -0.01813
   1     6     1         -0.18780   0.30320   0.30780   0.27743  -0.13114
   2     6     1          0.28235   0.30502  -0.17771   0.03206  -0.40607
   3     6     1          0.17058  -0.06180  -0.19947   0.02720   0.01085
   1     7     1          0.18780  -0.30320  -0.30780   0.27743  -0.13114
   2     7     1         -0.28235  -0.30502   0.17771   0.03206  -0.40607
   3     7     1          0.17058  -0.06180  -0.19947  -0.02720  -0.01085
   1     8     1          0.07174   0.34936   0.30780  -0.19230   0.23914
   2     8     1          0.37021  -0.18895   0.17771   0.40233   0.06365
   3     8     1         -0.13881  -0.11683  -0.19947   0.00420   0.02898
   1     9     1         -0.07174  -0.34936  -0.30780  -0.19230   0.23914
   2     9     1         -0.37021   0.18895  -0.17771   0.40233   0.06365
   3     9     1         -0.13881  -0.11683  -0.19947  -0.00420  -0.02898
                           6         7         8         9        10
                          E'        E'        A2'       A1"       E"
       Frequencies ---  1064.9383 1064.9383 1087.9289 1157.2474 1217.9702
    Reduced masses ---     1.3093    1.3093    1.4284    1.0078    1.4478
   Force constants ---     0.8748    0.8748    0.9961    0.7952    1.2654
    IR Intensities ---     8.2158    8.2157    0.0000    0.0000    0.0000
 Coord Atom Element:
   1     1     6          0.07675  -0.10590  -0.11293   0.00000  -0.00000
   2     1     6          0.02777   0.02013  -0.00000  -0.00000   0.00000
   3     1     6         -0.00000  -0.00000  -0.00000   0.00000   0.16281
   1     2     6         -0.05379  -0.04760   0.05647  -0.00000  -0.00000
   2     2     6         -0.03053  -0.11041   0.09780  -0.00000  -0.00000
   3     2     6          0.00000  -0.00000  -0.00000   0.00000  -0.06993
   1     3     6          0.06197   0.03631   0.05647  -0.00000   0.00000
   2     3     6         -0.11443   0.00535  -0.09780   0.00000  -0.00000
   3     3     6         -0.00000   0.00000   0.00000  -0.00000  -0.09288
   1     4     1         -0.33398   0.46078   0.40036   0.40825   0.03187
   2     4     1          0.00431   0.00313  -0.00000   0.00000   0.39634
   3     4     1          0.01411   0.01023  -0.00000  -0.00000  -0.08665
   1     5     1         -0.33398   0.46078   0.40036  -0.40825  -0.03187
   2     5     1          0.00431   0.00313   0.00000  -0.00000  -0.39634
   3     5     1         -0.01411  -0.01023   0.00000  -0.00000  -0.08665
   1     6     1          0.11182   0.26169  -0.20018  -0.20412   0.03008
   2     6     1          0.20340   0.44892  -0.34672  -0.35355   0.39256
   3     6     1         -0.01591   0.00711  -0.00000   0.00000   0.03721
   1     7     1          0.11182   0.26169  -0.20018   0.20412  -0.03008
   2     7     1          0.20340   0.44892  -0.34672   0.35355  -0.39256
   3     7     1          0.01591  -0.00711   0.00000  -0.00000   0.03721
   1     8     1         -0.28350  -0.02483  -0.20018   0.20412  -0.03426
   2     8     1          0.48993   0.05361   0.34672  -0.35355  -0.39290
   3     8     1         -0.00180   0.01733  -0.00000   0.00000   0.04943
   1     9     1         -0.28350  -0.02483  -0.20018  -0.20412   0.03426
   2     9     1          0.48993   0.05361   0.34672   0.35355   0.39290
   3     9     1          0.00180  -0.01733   0.00000  -0.00000   0.04943
                          11        12        13        14        15
                          E"        A1'       E'        E'        A1'
       Frequencies ---  1217.9702 1223.4801 1486.4963 1486.4963 1535.6722
    Reduced masses ---     1.4478    2.6341    1.0879    1.0879    1.3371
   Force constants ---     1.2654    2.3231    1.4163    1.4163    1.8579
    IR Intensities ---     0.0000    0.0000    0.3296    0.3296    0.0000
 Coord Atom Element:
   1     1     6         -0.00000   0.00000   0.00068  -0.01258  -0.00000
   2     1     6         -0.00000   0.22207  -0.06844  -0.00369   0.09993
   3     1     6         -0.01325   0.00000  -0.00000  -0.00000   0.00000
   1     2     6          0.00000   0.19232   0.02713  -0.05317   0.08654
   2     2     6         -0.00000  -0.11104  -0.02785   0.02276  -0.04997
   3     2     6          0.14762   0.00000   0.00000  -0.00000   0.00000
   1     3     6          0.00000  -0.19232  -0.02125  -0.05578  -0.08654
   2     3     6          0.00000  -0.11104  -0.02524  -0.02562  -0.04997
   3     3     6         -0.13437   0.00000   0.00000   0.00000   0.00000
   1     4     1          0.39152   0.00000  -0.00071   0.01310   0.00000
   2     4     1         -0.03227   0.37059   0.46924   0.02533  -0.30908
   3     4     1          0.00705  -0.06835  -0.33104  -0.01787   0.25718
   1     5     1         -0.39152  -0.00000  -0.00071   0.01310   0.00000
   2     5     1          0.03227   0.37059   0.46924   0.02533  -0.30908
   3     5     1          0.00705   0.06835   0.33104   0.01787  -0.25718
   1     6     1          0.39531   0.32094  -0.21669   0.34454  -0.26767
   2     6     1         -0.03406  -0.18530   0.13779  -0.19065   0.15454
   3     6     1         -0.07856  -0.06835   0.18099  -0.27775   0.25718
   1     7     1         -0.39531   0.32094  -0.21669   0.34454  -0.26767
   2     7     1          0.03406  -0.18530   0.13779  -0.19065   0.15454
   3     7     1         -0.07856   0.06835  -0.18099   0.27775  -0.25718
   1     8     1         -0.39497  -0.32094   0.17834   0.36587   0.26767
   2     8     1          0.02988  -0.18530   0.11647   0.20438   0.15454
   3     8     1          0.07151   0.06835  -0.15004  -0.29562  -0.25718
   1     9     1          0.39497  -0.32094   0.17834   0.36587   0.26767
   2     9     1         -0.02988  -0.18530   0.11647   0.20438   0.15454
   3     9     1          0.07151  -0.06835   0.15004   0.29562   0.25718
                          16        17        18        19        20
                          E'        E'        A1'       E"        E"
       Frequencies ---  3140.1717 3140.1717 3147.6526 3217.1269 3217.1269
    Reduced masses ---     1.0507    1.0507    1.0635    1.1195    1.1195
   Force constants ---     6.1041    6.1041    6.2080    6.8269    6.8269
    IR Intensities ---    27.5998   27.5990    0.0000    0.0000    0.0000
 Coord Atom Element:
   1     1     6          0.00004   0.00014   0.00000  -0.00000  -0.00000
   2     1     6         -0.04918   0.01341  -0.04108  -0.00000   0.00000
   3     1     6          0.00000  -0.00000  -0.00000  -0.07954   0.02118
   1     2     6          0.01130  -0.04267  -0.03558  -0.00000  -0.00000
   2     2     6         -0.00636   0.02468   0.02054  -0.00000   0.00000
   3     2     6         -0.00000   0.00000  -0.00000   0.02143  -0.07948
   1     3     6         -0.03141  -0.03102   0.03558  -0.00000  -0.00000
   2     3     6         -0.01801  -0.01803   0.02054  -0.00000   0.00000
   3     3     6         -0.00000  -0.00000  -0.00000   0.05811   0.05829
   1     4     1          0.00017   0.00061   0.00000  -0.00111  -0.00416
   2     4     1          0.29132  -0.07947   0.21082   0.30063  -0.08006
   3     4     1          0.47347  -0.12915   0.34840   0.46659  -0.12425
   1     5     1          0.00017   0.00061  -0.00000   0.00111   0.00416
   2     5     1          0.29132  -0.07947   0.21082  -0.30063   0.08006
   3     5     1         -0.47347   0.12915  -0.34840   0.46659  -0.12425
   1     6     1         -0.06624   0.25298   0.18257  -0.07221   0.25958
   2     6     1          0.03895  -0.14587  -0.10541   0.03689  -0.15116
   3     6     1         -0.12488   0.47461   0.34840  -0.12569   0.46620
   1     7     1         -0.06624   0.25298   0.18257   0.07221  -0.25958
   2     7     1          0.03895  -0.14587  -0.10541  -0.03689   0.15116
   3     7     1          0.12488  -0.47461  -0.34840  -0.12569   0.46620
   1     8     1          0.18552   0.18431  -0.18257  -0.19174  -0.18929
   2     8     1          0.10763   0.10589  -0.10541  -0.10718  -0.11279
   3     8     1          0.34858   0.34546  -0.34840  -0.34089  -0.34195
   1     9     1          0.18552   0.18431  -0.18257   0.19174   0.18929
   2     9     1          0.10763   0.10589  -0.10541   0.10718   0.11279
   3     9     1         -0.34858  -0.34546   0.34840  -0.34089  -0.34195
                          21
                          A2"
       Frequencies ---  3237.0036
    Reduced masses ---     1.1152
   Force constants ---     6.8849
    IR Intensities ---    38.0890
 Coord Atom Element:
   1     1     6         -0.00000
   2     1     6          0.00000
   3     1     6         -0.05707
   1     2     6          0.00000
   2     2     6         -0.00000
   3     2     6         -0.05707
   1     3     6         -0.00000
   2     3     6         -0.00000
   3     3     6         -0.05707
   1     4     1         -0.00000
   2     4     1          0.22271
   3     4     1          0.33976
   1     5     1          0.00000
   2     5     1         -0.22271
   3     5     1          0.33976
   1     6     1          0.19287
   2     6     1         -0.11136
   3     6     1          0.33976
   1     7     1         -0.19287
   2     7     1          0.11136
   3     7     1          0.33976
   1     8     1          0.19287
   2     8     1          0.11136
   3     8     1          0.33976
   1     9     1         -0.19287
   2     9     1         -0.11136
   3     9     1          0.33976
 Harmonic frequencies (cm**-1), IR intensities (KM/Mole), Raman scattering
 activities (A**4/AMU), depolarization ratios for plane and unpolarized
 incident light, reduced masses (AMU), force constants (mDyne/A),
 and normal coordinates:
                      1                      2                      3
                     E"                     E"                     A2"
 Frequencies --    739.1727               739.1727               862.1935
 Red. masses --      1.0229                 1.0229                 1.0448
 Frc consts  --      0.3293                 0.3293                 0.4576
 IR Inten    --      0.0000                 0.0000                 0.5195
  Atom  AN      X      Y      Z        X      Y      Z        X      Y      Z
     1   6     0.00   0.00   0.01     0.00  -0.00  -0.03    -0.00  -0.00   0.03
     2   6    -0.00   0.00  -0.03     0.00   0.00   0.01    -0.00   0.00   0.03
     3   6    -0.00  -0.00   0.02    -0.00   0.00   0.02     0.00   0.00   0.03
     4   1     0.44   0.06  -0.03     0.08  -0.32   0.18    -0.00   0.36  -0.20
     5   1    -0.44  -0.06  -0.03    -0.08   0.32   0.18     0.00  -0.36  -0.20
     6   1    -0.19   0.28   0.17     0.30   0.31  -0.06     0.31  -0.18  -0.20
     7   1     0.19  -0.28   0.17    -0.30  -0.31  -0.06    -0.31   0.18  -0.20
     8   1     0.07   0.37  -0.14     0.35  -0.19  -0.12     0.31   0.18  -0.20
     9   1    -0.07  -0.37  -0.14    -0.35   0.19  -0.12    -0.31  -0.18  -0.20
                      4                      5                      6
                     E'                     E'                     E'
 Frequencies --    892.3509               892.3509              1064.9383
 Red. masses --      3.3949                 3.3949                 1.3093
 Frc consts  --      1.5927                 1.5927                 0.8748
 IR Inten    --     16.3749                16.3749                 8.2158
  Atom  AN      X      Y      Z        X      Y      Z        X      Y      Z
     1   6    -0.16  -0.22   0.00    -0.20   0.18  -0.00     0.08   0.03  -0.00
     2   6     0.28  -0.05  -0.00    -0.02  -0.25  -0.00    -0.05  -0.03   0.00
     3   6    -0.09   0.24   0.00     0.26   0.11   0.00     0.06  -0.11  -0.00
     4   1    -0.28  -0.19  -0.02    -0.35   0.15   0.02    -0.33   0.00   0.01
     5   1    -0.28  -0.19   0.02    -0.35   0.15  -0.02    -0.33   0.00  -0.01
     6   1     0.28   0.03   0.03    -0.13  -0.41   0.01     0.11   0.20  -0.02
     7   1     0.28   0.03  -0.03    -0.13  -0.41  -0.01     0.11   0.20   0.02
     8   1    -0.19   0.40   0.00     0.24   0.06   0.03    -0.28   0.49  -0.00
     9   1    -0.19   0.40  -0.00     0.24   0.06  -0.03    -0.28   0.49   0.00
                      7                      8                      9
                     E'                     A2'                    A1"
 Frequencies --   1064.9383              1087.9289              1157.2474
 Red. masses --      1.3093                 1.4284                 1.0078
 Frc consts  --      0.8748                 0.9961                 0.7952
 IR Inten    --      8.2157                 0.0000                 0.0000
  Atom  AN      X      Y      Z        X      Y      Z        X      Y      Z
     1   6    -0.11   0.02  -0.00    -0.11  -0.00  -0.00     0.00  -0.00   0.00
     2   6    -0.05  -0.11  -0.00     0.06   0.10  -0.00    -0.00  -0.00   0.00
     3   6     0.04   0.01   0.00     0.06  -0.10   0.00    -0.00   0.00  -0.00
     4   1     0.46   0.00   0.01     0.40  -0.00  -0.00     0.41   0.00  -0.00
     5   1     0.46   0.00  -0.01     0.40   0.00   0.00    -0.41  -0.00  -0.00
     6   1     0.26   0.45   0.01    -0.20  -0.35  -0.00    -0.20  -0.35   0.00
     7   1     0.26   0.45  -0.01    -0.20  -0.35   0.00     0.20   0.35  -0.00
     8   1    -0.02   0.05   0.02    -0.20   0.35  -0.00     0.20  -0.35   0.00
     9   1    -0.02   0.05  -0.02    -0.20   0.35   0.00    -0.20   0.35  -0.00
                     10                     11                     12
                     E"                     E"                     A1'
 Frequencies --   1217.9702              1217.9702              1223.4801
 Red. masses --      1.4478                 1.4478                 2.6341
 Frc consts  --      1.2654                 1.2654                 2.3231
 IR Inten    --      0.0000                 0.0000                 0.0000
  Atom  AN      X      Y      Z        X      Y      Z        X      Y      Z
     1   6    -0.00   0.00   0.16    -0.00  -0.00  -0.01     0.00   0.22   0.00
     2   6    -0.00  -0.00  -0.07     0.00  -0.00   0.15     0.19  -0.11   0.00
     3   6     0.00  -0.00  -0.09     0.00   0.00  -0.13    -0.19  -0.11   0.00
     4   1     0.03   0.40  -0.09     0.39  -0.03   0.01     0.00   0.37  -0.07
     5   1    -0.03  -0.40  -0.09    -0.39   0.03   0.01    -0.00   0.37   0.07
     6   1     0.03   0.39   0.04     0.40  -0.03  -0.08     0.32  -0.19  -0.07
     7   1    -0.03  -0.39   0.04    -0.40   0.03  -0.08     0.32  -0.19   0.07
     8   1    -0.03  -0.39   0.05    -0.39   0.03   0.07    -0.32  -0.19   0.07
     9   1     0.03   0.39   0.05     0.39  -0.03   0.07    -0.32  -0.19  -0.07
                     13                     14                     15
                     E'                     E'                     A1'
 Frequencies --   1486.4963              1486.4963              1535.6722
 Red. masses --      1.0879                 1.0879                 1.3371
 Frc consts  --      1.4163                 1.4163                 1.8579
 IR Inten    --      0.3296                 0.3296                 0.0000
  Atom  AN      X      Y      Z        X      Y      Z        X      Y      Z
     1   6     0.00  -0.07  -0.00    -0.01  -0.00  -0.00    -0.00   0.10   0.00
     2   6     0.03  -0.03   0.00    -0.05   0.02  -0.00     0.09  -0.05   0.00
     3   6    -0.02  -0.03   0.00    -0.06  -0.03   0.00    -0.09  -0.05   0.00
     4   1    -0.00   0.47  -0.33     0.01   0.03  -0.02     0.00  -0.31   0.26
     5   1    -0.00   0.47   0.33     0.01   0.03   0.02     0.00  -0.31  -0.26
     6   1    -0.22   0.14   0.18     0.34  -0.19  -0.28    -0.27   0.15   0.26
     7   1    -0.22   0.14  -0.18     0.34  -0.19   0.28    -0.27   0.15  -0.26
     8   1     0.18   0.12  -0.15     0.37   0.20  -0.30     0.27   0.15  -0.26
     9   1     0.18   0.12   0.15     0.37   0.20   0.30     0.27   0.15   0.26
                     16                     17                     18
                     E'                     E'                     A1'
 Frequencies --   3140.1717              3140.1717              3147.6526
 Red. masses --      1.0507                 1.0507                 1.0635
 Frc consts  --      6.1041                 6.1041                 6.2080
 IR Inten    --     27.5998                27.5990                 0.0000
  Atom  AN      X      Y      Z        X      Y      Z        X      Y      Z
     1   6     0.00  -0.05   0.00     0.00   0.01  -0.00     0.00  -0.04  -0.00
     2   6     0.01  -0.01  -0.00    -0.04   0.02   0.00    -0.04   0.02  -0.00
     3   6    -0.03  -0.02  -0.00    -0.03  -0.02  -0.00     0.04   0.02  -0.00
     4   1     0.00   0.29   0.47     0.00  -0.08  -0.13     0.00   0.21   0.35
     5   1     0.00   0.29  -0.47     0.00  -0.08   0.13    -0.00   0.21  -0.35
     6   1    -0.07   0.04  -0.12     0.25  -0.15   0.47     0.18  -0.11   0.35
     7   1    -0.07   0.04   0.12     0.25  -0.15  -0.47     0.18  -0.11  -0.35
     8   1     0.19   0.11   0.35     0.18   0.11   0.35    -0.18  -0.11  -0.35
     9   1     0.19   0.11  -0.35     0.18   0.11  -0.35    -0.18  -0.11   0.35
                     19                     20                     21
                     E"                     E"                     A2"
 Frequencies --   3217.1269              3217.1269              3237.0036
 Red. masses --      1.1195                 1.1195                 1.1152
 Frc consts  --      6.8269                 6.8269                 6.8849
 IR Inten    --      0.0000                 0.0000                38.0890
  Atom  AN      X      Y      Z        X      Y      Z        X      Y      Z
     1   6    -0.00  -0.00  -0.08    -0.00   0.00   0.02    -0.00   0.00  -0.06
     2   6    -0.00  -0.00   0.02    -0.00   0.00  -0.08     0.00  -0.00  -0.06
     3   6    -0.00  -0.00   0.06    -0.00   0.00   0.06    -0.00  -0.00  -0.06
     4   1    -0.00   0.30   0.47    -0.00  -0.08  -0.12    -0.00   0.22   0.34
     5   1     0.00  -0.30   0.47     0.00   0.08  -0.12     0.00  -0.22   0.34
     6   1    -0.07   0.04  -0.13     0.26  -0.15   0.47     0.19  -0.11   0.34
     7   1     0.07  -0.04  -0.13    -0.26   0.15   0.47    -0.19   0.11   0.34
     8   1    -0.19  -0.11  -0.34    -0.19  -0.11  -0.34     0.19   0.11   0.34
     9   1     0.19   0.11  -0.34     0.19   0.11  -0.34    -0.19  -0.11   0.34

 -------------------
 - Thermochemistry -
 -------------------
 Temperature   298.150 Kelvin.  Pressure   1.00000 Atm.
 Atom     1 has atomic number  6 and mass  12.00000
 Atom     2 has atomic number  6 and mass  12.00000
 Atom     3 has atomic number  6 and mass  12.00000
 Atom     4 has atomic number  1 and mass   1.00783
 Atom     5 has atomic number  1 and mass   1.00783
 Atom     6 has atomic number  1 and mass   1.00783
 Atom     7 has atomic number  1 and mass   1.00783
 Atom     8 has atomic number  1 and mass   1.00783
 Atom     9 has atomic number  1 and mass   1.00783
 Molecular mass:    42.04695 amu.
 Principal axes and moments of inertia in atomic units:
                           1         2         3
     Eigenvalues --    89.72860  89.72860 143.65626
           X           -0.04364   0.99905   0.00000
           Y            0.99905   0.04364   0.00000
           Z           -0.00000  -0.00000   1.00000
 This molecule is an oblate symmetric top.
 Rotational symmetry number  6.
 Rotational temperatures (Kelvin)      0.96529     0.96529     0.60292
 Rotational constants (GHZ):          20.11333    20.11333    12.56291
 Zero-point vibrational energy     213938.0 (Joules/Mol)
                                   51.13240 (Kcal/Mol)
 Vibrational temperatures:   1063.50  1063.50  1240.50  1283.89  1283.89
          (Kelvin)           1532.21  1532.21  1565.29  1665.02  1752.39
                             1752.39  1760.31  2138.74  2138.74  2209.49
                             4518.01  4518.01  4528.77  4628.73  4628.73
                             4657.33
 
 Zero-point correction=                           0.081485 (Hartree/Particle)
 Thermal correction to Energy=                    0.084851
 Thermal correction to Enthalpy=                  0.085795
 Thermal correction to Gibbs Free Energy=         0.058886
 Sum of electronic and zero-point Energies=           -117.822672
 Sum of electronic and thermal Energies=              -117.819306
 Sum of electronic and thermal Enthalpies=            -117.818362
 Sum of electronic and thermal Free Energies=         -117.845271
 
                     E (Thermal)             CV                S
                      KCal/Mol        Cal/Mol-Kelvin    Cal/Mol-Kelvin
 Total                   53.245             10.997             56.633
 Electronic               0.000              0.000              0.000
 Translational            0.889              2.981             37.135
 Rotational               0.889              2.981             18.114
 Vibrational             51.467              5.035              1.384
                       Q            Log10(Q)             Ln(Q)
 Total Bot       0.820569D-27        -27.085885        -62.367555
 Total V=0       0.247984D+11         10.394424         23.934047
 Vib (Bot)       0.377374D-37        -37.423228        -86.170168
 Vib (V=0)       0.114046D+01          0.057081          0.131434
 Electronic      0.100000D+01          0.000000          0.000000
 Translational   0.107166D+08          7.030056         16.187301
 Rotational      0.202903D+04          3.307288          7.615311
                           ----------------------------
                           ! Normal Mode     1        !
 --------------------------                            --------------------------
 ! Name  Definition              Value          Relative Weight (%)             !
 --------------------------------------------------------------------------------
 ! R1    R(1,2)                  0.0                     0.0                    !
 ! R2    R(1,3)                  0.0                     0.0                    !
 ! R3    R(1,4)                 -0.0003                  0.0                    !
 ! R4    R(1,5)                  0.0003                  0.0                    !
 ! R5    R(2,3)                  0.0                     0.0                    !
 ! R6    R(2,6)                  0.0014                  0.0                    !
 ! R7    R(2,7)                 -0.0014                  0.0                    !
 ! R8    R(3,8)                  0.0011                  0.0                    !
 ! R9    R(3,9)                 -0.0011                  0.0                    !
 ! A1    A(2,1,4)               -0.0819                  1.7                    !
 ! A2    A(2,1,5)                0.0819                  1.7                    !
 ! A3    A(3,1,4)                0.1415                  2.9                    !
 ! A4    A(3,1,5)               -0.1415                  2.9                    !
 ! A5    A(4,1,5)                0.0                     0.0                    !
 ! A6    A(1,2,6)               -0.1987                  4.1                    !
 ! A7    A(1,2,7)                0.1987                  4.1                    !
 ! A8    A(3,2,6)               -0.1214                  2.5                    !
 ! A9    A(3,2,7)                0.1214                  2.5                    !
 ! A10   A(6,2,7)                0.0                     0.0                    !
 ! A11   A(1,3,8)               -0.2033                  4.1                    !
 ! A12   A(1,3,9)                0.2033                  4.1                    !
 ! A13   A(2,3,8)               -0.0572                  1.2                    !
 ! A14   A(2,3,9)                0.0572                  1.2                    !
 ! A15   A(8,3,9)                0.0                     0.0                    !
 ! D1    D(4,1,2,6)              0.2686                  5.5                    !
 ! D2    D(4,1,2,7)              0.2686                  5.5                    !
 ! D3    D(5,1,2,6)              0.2686                  5.5                    !
 ! D4    D(5,1,2,7)              0.2686                  5.5                    !
 ! D5    D(4,1,3,8)              0.1421                  2.9                    !
 ! D6    D(4,1,3,9)              0.1421                  2.9                    !
 ! D7    D(5,1,3,8)              0.1421                  2.9                    !
 ! D8    D(5,1,3,9)              0.1421                  2.9                    !
 ! D9    D(6,2,3,8)             -0.4107                  8.4                    !
 ! D10   D(6,2,3,9)             -0.4107                  8.4                    !
 ! D11   D(7,2,3,8)             -0.4107                  8.4                    !
 ! D12   D(7,2,3,9)             -0.4107                  8.4                    !
 --------------------------------------------------------------------------------
                           ----------------------------
                           ! Normal Mode     2        !
 --------------------------                            --------------------------
 ! Name  Definition              Value          Relative Weight (%)             !
 --------------------------------------------------------------------------------
 ! R1    R(1,2)                  0.0                     0.0                    !
 ! R2    R(1,3)                  0.0                     0.0                    !
 ! R3    R(1,4)                  0.0015                  0.0                    !
 ! R4    R(1,5)                 -0.0015                  0.0                    !
 ! R5    R(2,3)                  0.0                     0.0                    !
 ! R6    R(2,6)                 -0.0005                  0.0                    !
 ! R7    R(2,7)                  0.0005                  0.0                    !
 ! R8    R(3,8)                  0.001                   0.0                    !
 ! R9    R(3,9)                 -0.001                   0.0                    !
 ! A1    A(2,1,4)               -0.1875                  4.0                    !
 ! A2    A(2,1,5)                0.1875                  4.0                    !
 ! A3    A(3,1,4)               -0.1477                  3.2                    !
 ! A4    A(3,1,5)                0.1477                  3.2                    !
 ! A5    A(4,1,5)                0.0                     0.0                    !
 ! A6    A(1,2,6)               -0.0487                  1.0                    !
 ! A7    A(1,2,7)                0.0487                  1.0                    !
 ! A8    A(3,2,6)                0.1647                  3.5                    !
 ! A9    A(3,2,7)               -0.1647                  3.5                    !
 ! A10   A(6,2,7)                0.0                     0.0                    !
 ! A11   A(1,3,8)               -0.0228                  0.5                    !
 ! A12   A(1,3,9)                0.0228                  0.5                    !
 ! A13   A(2,3,8)               -0.1964                  4.2                    !
 ! A14   A(2,3,9)                0.1964                  4.2                    !
 ! A15   A(8,3,9)                0.0                     0.0                    !
 ! D1    D(4,1,2,6)             -0.3192                  6.8                    !
 ! D2    D(4,1,2,7)             -0.3192                  6.8                    !
 ! D3    D(5,1,2,6)             -0.3192                  6.8                    !
 ! D4    D(5,1,2,7)             -0.3192                  6.8                    !
 ! D5    D(4,1,3,8)              0.3922                  8.4                    !
 ! D6    D(4,1,3,9)              0.3922                  8.4                    !
 ! D7    D(5,1,3,8)              0.3922                  8.4                    !
 ! D8    D(5,1,3,9)              0.3922                  8.4                    !
 ! D9    D(6,2,3,8)             -0.0731                  1.6                    !
 ! D10   D(6,2,3,9)             -0.0731                  1.6                    !
 ! D11   D(7,2,3,8)             -0.0731                  1.6                    !
 ! D12   D(7,2,3,9)             -0.0731                  1.6                    !
 --------------------------------------------------------------------------------
                           ----------------------------
                           ! Normal Mode     3        !
 --------------------------                            --------------------------
 ! Name  Definition              Value          Relative Weight (%)             !
 --------------------------------------------------------------------------------
 ! R1    R(1,2)                  0.0                     0.0                    !
 ! R2    R(1,3)                  0.0                     0.0                    !
 ! R3    R(1,4)                 -0.0017                  0.1                    !
 ! R4    R(1,5)                  0.0017                  0.1                    !
 ! R5    R(2,3)                  0.0                     0.0                    !
 ! R6    R(2,6)                 -0.0017                  0.1                    !
 ! R7    R(2,7)                  0.0017                  0.1                    !
 ! R8    R(3,8)                  0.0017                  0.1                    !
 ! R9    R(3,9)                 -0.0017                  0.1                    !
 ! A1    A(2,1,4)                0.1706                  8.3                    !
 ! A2    A(2,1,5)               -0.1706                  8.3                    !
 ! A3    A(3,1,4)                0.1706                  8.3                    !
 ! A4    A(3,1,5)               -0.1706                  8.3                    !
 ! A5    A(4,1,5)                0.0                     0.0                    !
 ! A6    A(1,2,6)                0.1706                  8.3                    !
 ! A7    A(1,2,7)               -0.1706                  8.3                    !
 ! A8    A(3,2,6)                0.1706                  8.3                    !
 ! A9    A(3,2,7)               -0.1706                  8.3                    !
 ! A10   A(6,2,7)                0.0                     0.0                    !
 ! A11   A(1,3,8)               -0.1706                  8.3                    !
 ! A12   A(1,3,9)                0.1706                  8.3                    !
 ! A13   A(2,3,8)               -0.1706                  8.3                    !
 ! A14   A(2,3,9)                0.1706                  8.3                    !
 ! A15   A(8,3,9)                0.0                     0.0                    !
 ! D1    D(4,1,2,6)              0.0                     0.0                    !
 ! D2    D(4,1,2,7)              0.0                     0.0                    !
 ! D3    D(5,1,2,6)              0.0                     0.0                    !
 ! D4    D(5,1,2,7)              0.0                     0.0                    !
 ! D5    D(4,1,3,8)              0.0                     0.0                    !
 ! D6    D(4,1,3,9)              0.0                     0.0                    !
 ! D7    D(5,1,3,8)              0.0                     0.0                    !
 ! D8    D(5,1,3,9)              0.0                     0.0                    !
 ! D9    D(6,2,3,8)              0.0                     0.0                    !
 ! D10   D(6,2,3,9)              0.0                     0.0                    !
 ! D11   D(7,2,3,8)              0.0                     0.0                    !
 ! D12   D(7,2,3,9)              0.0                     0.0                    !
 --------------------------------------------------------------------------------
                           ----------------------------
                           ! Normal Mode     4        !
 --------------------------                            --------------------------
 ! Name  Definition              Value          Relative Weight (%)             !
 --------------------------------------------------------------------------------
 ! R1    R(1,2)                  0.0667                  2.9                    !
 ! R2    R(1,3)                 -0.4319                 18.8                    !
 ! R3    R(1,4)                 -0.0002                  0.0                    !
 ! R4    R(1,5)                 -0.0002                  0.0                    !
 ! R5    R(2,3)                  0.3652                 15.9                    !
 ! R6    R(2,6)                  0.0003                  0.0                    !
 ! R7    R(2,7)                  0.0003                  0.0                    !
 ! R8    R(3,8)                  0.0                     0.0                    !
 ! R9    R(3,9)                  0.0                     0.0                    !
 ! A1    A(2,1,4)                0.0008                  0.0                    !
 ! A2    A(2,1,5)                0.0008                  0.0                    !
 ! A3    A(3,1,4)               -0.0358                  1.6                    !
 ! A4    A(3,1,5)               -0.0358                  1.6                    !
 ! A5    A(4,1,5)               -0.0408                  1.8                    !
 ! A6    A(1,2,6)                0.0097                  0.4                    !
 ! A7    A(1,2,7)                0.0097                  0.4                    !
 ! A8    A(3,2,6)                0.0316                  1.4                    !
 ! A9    A(3,2,7)                0.0316                  1.4                    !
 ! A10   A(6,2,7)                0.0482                  2.1                    !
 ! A11   A(1,3,8)               -0.0325                  1.4                    !
 ! A12   A(1,3,9)               -0.0325                  1.4                    !
 ! A13   A(2,3,8)                0.0261                  1.1                    !
 ! A14   A(2,3,9)                0.0261                  1.1                    !
 ! A15   A(8,3,9)               -0.0075                  0.3                    !
 ! D1    D(4,1,2,6)              0.1037                  4.5                    !
 ! D2    D(4,1,2,7)             -0.0248                  1.1                    !
 ! D3    D(5,1,2,6)              0.0248                  1.1                    !
 ! D4    D(5,1,2,7)             -0.1037                  4.5                    !
 ! D5    D(4,1,3,8)             -0.1607                  7.0                    !
 ! D6    D(4,1,3,9)             -0.0388                  1.7                    !
 ! D7    D(5,1,3,8)              0.0388                  1.7                    !
 ! D8    D(5,1,3,9)              0.1607                  7.0                    !
 ! D9    D(6,2,3,8)             -0.1359                  5.9                    !
 ! D10   D(6,2,3,9)             -0.0649                  2.8                    !
 ! D11   D(7,2,3,8)              0.0649                  2.8                    !
 ! D12   D(7,2,3,9)              0.1359                  5.9                    !
 --------------------------------------------------------------------------------
                           ----------------------------
                           ! Normal Mode     5        !
 --------------------------                            --------------------------
 ! Name  Definition              Value          Relative Weight (%)             !
 --------------------------------------------------------------------------------
 ! R1    R(1,2)                  0.4602                 19.3                    !
 ! R2    R(1,3)                 -0.1723                  7.2                    !
 ! R3    R(1,4)                  0.0002                  0.0                    !
 ! R4    R(1,5)                  0.0002                  0.0                    !
 ! R5    R(2,3)                 -0.2879                 12.0                    !
 ! R6    R(2,6)                  0.0001                  0.0                    !
 ! R7    R(2,7)                  0.0001                  0.0                    !
 ! R8    R(3,8)                 -0.0003                  0.0                    !
 ! R9    R(3,9)                 -0.0003                  0.0                    !
 ! A1    A(2,1,4)                0.037                   1.5                    !
 ! A2    A(2,1,5)                0.037                   1.5                    !
 ! A3    A(3,1,4)               -0.0094                  0.4                    !
 ! A4    A(3,1,5)               -0.0094                  0.4                    !
 ! A5    A(4,1,5)                0.0322                  1.3                    !
 ! A6    A(1,2,6)                0.0357                  1.5                    !
 ! A7    A(1,2,7)                0.0357                  1.5                    !
 ! A8    A(3,2,6)               -0.0192                  0.8                    !
 ! A9    A(3,2,7)               -0.0192                  0.8                    !
 ! A10   A(6,2,7)                0.0192                  0.8                    !
 ! A11   A(1,3,8)               -0.0178                  0.7                    !
 ! A12   A(1,3,9)               -0.0178                  0.7                    !
 ! A13   A(2,3,8)               -0.0263                  1.1                    !
 ! A14   A(2,3,9)               -0.0263                  1.1                    !
 ! A15   A(8,3,9)               -0.0514                  2.2                    !
 ! D1    D(4,1,2,6)             -0.015                   0.6                    !
 ! D2    D(4,1,2,7)             -0.1712                  7.2                    !
 ! D3    D(5,1,2,6)              0.1712                  7.2                    !
 ! D4    D(5,1,2,7)              0.015                   0.6                    !
 ! D5    D(4,1,3,8)             -0.0641                  2.7                    !
 ! D6    D(4,1,3,9)              0.0973                  4.1                    !
 ! D7    D(5,1,3,8)             -0.0973                  4.1                    !
 ! D8    D(5,1,3,9)              0.0641                  2.7                    !
 ! D9    D(6,2,3,8)              0.1071                  4.5                    !
 ! D10   D(6,2,3,9)             -0.0823                  3.4                    !
 ! D11   D(7,2,3,8)              0.0823                  3.4                    !
 ! D12   D(7,2,3,9)             -0.1071                  4.5                    !
 --------------------------------------------------------------------------------
                           ----------------------------
                           ! Normal Mode     6        !
 --------------------------                            --------------------------
 ! Name  Definition              Value          Relative Weight (%)             !
 --------------------------------------------------------------------------------
 ! R1    R(1,2)                 -0.0148                  0.3                    !
 ! R2    R(1,3)                  0.1305                  2.4                    !
 ! R3    R(1,4)                 -0.001                   0.0                    !
 ! R4    R(1,5)                 -0.001                   0.0                    !
 ! R5    R(2,3)                 -0.1158                  2.1                    !
 ! R6    R(2,6)                  0.0011                  0.0                    !
 ! R7    R(2,7)                  0.0011                  0.0                    !
 ! R8    R(3,8)                 -0.0001                  0.0                    !
 ! R9    R(3,9)                 -0.0001                  0.0                    !
 ! A1    A(2,1,4)                0.118                   2.2                    !
 ! A2    A(2,1,5)                0.118                   2.2                    !
 ! A3    A(3,1,4)               -0.1182                  2.2                    !
 ! A4    A(3,1,5)               -0.1182                  2.2                    !
 ! A5    A(4,1,5)                0.0267                  0.5                    !
 ! A6    A(1,2,6)               -0.0819                  1.5                    !
 ! A7    A(1,2,7)               -0.0819                  1.5                    !
 ! A8    A(3,2,6)                0.0822                  1.5                    !
 ! A9    A(3,2,7)                0.0822                  1.5                    !
 ! A10   A(6,2,7)               -0.0301                  0.6                    !
 ! A11   A(1,3,8)               -0.2001                  3.7                    !
 ! A12   A(1,3,9)               -0.2001                  3.7                    !
 ! A13   A(2,3,8)                0.2001                  3.7                    !
 ! A14   A(2,3,9)                0.2001                  3.7                    !
 ! A15   A(8,3,9)                0.0034                  0.1                    !
 ! D1    D(4,1,2,6)             -0.386                   7.1                    !
 ! D2    D(4,1,2,7)             -0.056                   1.0                    !
 ! D3    D(5,1,2,6)              0.056                   1.0                    !
 ! D4    D(5,1,2,7)              0.386                   7.1                    !
 ! D5    D(4,1,3,8)             -0.4943                  9.1                    !
 ! D6    D(4,1,3,9)              0.1582                  2.9                    !
 ! D7    D(5,1,3,8)             -0.1582                  2.9                    !
 ! D8    D(5,1,3,9)              0.4943                  9.1                    !
 ! D9    D(6,2,3,8)             -0.4383                  8.0                    !
 ! D10   D(6,2,3,9)              0.2277                  4.2                    !
 ! D11   D(7,2,3,8)             -0.2277                  4.2                    !
 ! D12   D(7,2,3,9)              0.4383                  8.0                    !
 --------------------------------------------------------------------------------
                           ----------------------------
                           ! Normal Mode     7        !
 --------------------------                            --------------------------
 ! Name  Definition              Value          Relative Weight (%)             !
 --------------------------------------------------------------------------------
 ! R1    R(1,2)                  0.1422                  2.6                    !
 ! R2    R(1,3)                 -0.0583                  1.1                    !
 ! R3    R(1,4)                 -0.0007                  0.0                    !
 ! R4    R(1,5)                 -0.0007                  0.0                    !
 ! R5    R(2,3)                 -0.0839                  1.6                    !
 ! R6    R(2,6)                 -0.0005                  0.0                    !
 ! R7    R(2,7)                 -0.0005                  0.0                    !
 ! R8    R(3,8)                  0.0012                  0.0                    !
 ! R9    R(3,9)                  0.0012                  0.0                    !
 ! A1    A(2,1,4)               -0.163                   3.0                    !
 ! A2    A(2,1,5)               -0.163                   3.0                    !
 ! A3    A(3,1,4)                0.1628                  3.0                    !
 ! A4    A(3,1,5)                0.1628                  3.0                    !
 ! A5    A(4,1,5)                0.0193                  0.4                    !
 ! A6    A(1,2,6)               -0.1838                  3.4                    !
 ! A7    A(1,2,7)               -0.1838                  3.4                    !
 ! A8    A(3,2,6)                0.1836                  3.4                    !
 ! A9    A(3,2,7)                0.1836                  3.4                    !
 ! A10   A(6,2,7)                0.0134                  0.2                    !
 ! A11   A(1,3,8)               -0.0207                  0.4                    !
 ! A12   A(1,3,9)               -0.0207                  0.4                    !
 ! A13   A(2,3,8)                0.0209                  0.4                    !
 ! A14   A(2,3,9)                0.0209                  0.4                    !
 ! A15   A(8,3,9)               -0.0328                  0.6                    !
 ! D1    D(4,1,2,6)             -0.0401                  0.7                    !
 ! D2    D(4,1,2,7)              0.5384                  10.0                   !
 ! D3    D(5,1,2,6)             -0.5384                  10.0                   !
[...]
      1   0.938731D-01  0.000000D+00  0.000000D+00  0.353952D+00  0.455303D+00
      2  -0.541977D-01  0.108395D+00  0.108395D+00  0.204354D+00  0.262869D+00
      3  -0.333692D+00  0.333692D+00 -0.333692D+00 -0.265527D+00 -0.170779D+00
      4   0.594675D-01  0.429731D+00  0.429731D+00 -0.707904D+00 -0.764581D+00
      5   0.461877D+00 -0.179438D+00 -0.179438D+00 -0.408708D+00 -0.441431D+00
      6   0.552396D+00 -0.552396D+00  0.552396D+00  0.000000D+00  0.286786D+00
      7  -0.153341D+00 -0.429731D+00 -0.429731D+00  0.353952D+00  0.764581D+00
      8  -0.407679D+00  0.710430D-01  0.710430D-01  0.204354D+00  0.441431D+00
      9  -0.218704D+00  0.218704D+00 -0.218704D+00  0.265527D+00 -0.286786D+00
     10   0.000000D+00  0.000000D+00  0.000000D+00  0.000000D+00 -0.455303D+00
     11   0.000000D+00  0.000000D+00  0.000000D+00  0.000000D+00 -0.262869D+00
     12   0.000000D+00  0.000000D+00  0.000000D+00  0.000000D+00  0.170779D+00
                26            27            28            29            30 
      1   0.455303D+00 -0.455303D+00 -0.455303D+00  0.455303D+00  0.455303D+00
      2   0.262869D+00 -0.262869D+00 -0.262869D+00 -0.262869D+00 -0.262869D+00
      3  -0.170779D+00 -0.170779D+00 -0.170779D+00  0.170779D+00  0.170779D+00
      4  -0.455303D+00  0.455303D+00  0.764581D+00 -0.455303D+00 -0.764581D+00
      5  -0.262869D+00  0.262869D+00  0.441431D+00  0.262869D+00  0.441431D+00
      6   0.286786D+00  0.286786D+00  0.286786D+00 -0.286786D+00 -0.286786D+00
      7  -0.455303D+00  0.455303D+00 -0.764581D+00 -0.455303D+00  0.764581D+00
      8  -0.262869D+00  0.262869D+00 -0.441431D+00  0.262869D+00 -0.441431D+00
      9  -0.286786D+00 -0.286786D+00 -0.286786D+00  0.286786D+00  0.286786D+00
     10   0.455303D+00 -0.455303D+00  0.455303D+00  0.455303D+00 -0.455303D+00
     11   0.262869D+00 -0.262869D+00  0.262869D+00 -0.262869D+00  0.262869D+00
     12   0.170779D+00  0.170779D+00  0.170779D+00 -0.170779D+00 -0.170779D+00
                31            32            33            34            35 
      1  -0.455303D+00 -0.455303D+00  0.000000D+00  0.000000D+00  0.000000D+00
      2   0.262869D+00  0.262869D+00 -0.525739D+00 -0.525739D+00  0.525739D+00
      3   0.170779D+00  0.170779D+00 -0.170779D+00 -0.170779D+00 -0.170779D+00
      4   0.764581D+00  0.455303D+00  0.000000D+00  0.000000D+00  0.000000D+00
      5  -0.441431D+00 -0.262869D+00  0.525739D+00  0.882862D+00 -0.882862D+00
      6  -0.286786D+00 -0.286786D+00  0.286786D+00  0.286786D+00  0.286786D+00
      7  -0.764581D+00  0.455303D+00  0.000000D+00  0.000000D+00  0.000000D+00
      8   0.441431D+00 -0.262869D+00  0.525739D+00 -0.882862D+00  0.882862D+00
      9   0.286786D+00  0.286786D+00 -0.286786D+00 -0.286786D+00 -0.286786D+00
     10   0.455303D+00 -0.455303D+00  0.000000D+00  0.000000D+00  0.000000D+00
     11  -0.262869D+00  0.262869D+00 -0.525739D+00  0.525739D+00 -0.525739D+00
     12  -0.170779D+00 -0.170779D+00  0.170779D+00  0.170779D+00  0.170779D+00
                36 
      1   0.000000D+00
      2   0.525739D+00
      3  -0.170779D+00
      4   0.000000D+00
      5  -0.525739D+00
      6   0.286786D+00
      7   0.000000D+00
      8  -0.525739D+00
      9  -0.286786D+00
     10   0.000000D+00
     11   0.525739D+00
     12   0.170779D+00
 Iteration  1 RMS(Cart)=  0.00006752 RMS(Int)=  0.00000000
 Iteration  2 RMS(Cart)=  0.00000000 RMS(Int)=  0.00000000
 Input Coordinates in SymCor: 
                 1             2             3             4             5 
      1   0.000000D+00  0.142514D+01 -0.142514D+01  0.000000D+00  0.000000D+00
      2   0.164561D+01 -0.822803D+00 -0.822803D+00  0.276343D+01  0.276343D+01
      3   0.000000D+00  0.000000D+00  0.000000D+00  0.172067D+01 -0.172067D+01
                 6             7             8             9 
      1   0.239320D+01  0.239320D+01 -0.239320D+01 -0.239320D+01
      2  -0.138171D+01 -0.138171D+01 -0.138171D+01 -0.138171D+01
      3   0.172067D+01 -0.172067D+01 -0.172067D+01  0.172067D+01
 Symmetrized Coordinates in SymCor: 
                 1             2             3             4             5 
      1   0.000000D+00  0.142514D+01 -0.142514D+01  0.000000D+00  0.000000D+00
      2   0.164561D+01 -0.822803D+00 -0.822803D+00  0.276343D+01  0.276343D+01
      3   0.000000D+00  0.000000D+00  0.000000D+00  0.172067D+01 -0.172067D+01
                 6             7             8             9 
      1   0.239320D+01  0.239320D+01 -0.239320D+01 -0.239320D+01
      2  -0.138171D+01 -0.138171D+01 -0.138171D+01 -0.138171D+01
      3   0.172067D+01 -0.172067D+01 -0.172067D+01  0.172067D+01
 Final Coordinates in SymCor: 
                 1             2             3             4             5 
      1   0.000000D+00  0.142514D+01 -0.142514D+01  0.000000D+00  0.000000D+00
      2   0.164561D+01 -0.822803D+00 -0.822803D+00  0.276343D+01  0.276343D+01
      3   0.000000D+00  0.000000D+00  0.000000D+00  0.172067D+01 -0.172067D+01
                 6             7             8             9 
      1   0.239320D+01  0.239320D+01 -0.239320D+01 -0.239320D+01
      2  -0.138171D+01 -0.138171D+01 -0.138171D+01 -0.138171D+01
      3   0.172067D+01 -0.172067D+01 -0.172067D+01  0.172067D+01
 ClnCor:  largest displacement from symmetrization is 7.52D-09 for atom     8.
 Variable       Old X    -DE/DX   Delta X   Delta X   Delta X     New X
                                 (Linear)    (Quad)   (Total)
    R1        2.85017   0.00003   0.00000   0.00010   0.00010   2.85027
    R2        2.85017   0.00003   0.00000   0.00010   0.00010   2.85027
    R3        2.05175   0.00005   0.00000   0.00013   0.00013   2.05188
    R4        2.05175   0.00005   0.00000   0.00013   0.00013   2.05188
    R5        2.85017   0.00003   0.00000   0.00010   0.00010   2.85027
    R6        2.05175   0.00005   0.00000   0.00013   0.00013   2.05188
    R7        2.05175   0.00005   0.00000   0.00013   0.00013   2.05188
    R8        2.05175   0.00005   0.00000   0.00013   0.00013   2.05188
    R9        2.05175   0.00005   0.00000   0.00013   0.00013   2.05188
    A1        2.06214  -0.00000   0.00000  -0.00002  -0.00002   2.06212
    A2        2.06214  -0.00000   0.00000  -0.00002  -0.00002   2.06212
    A3        2.06214  -0.00000   0.00000  -0.00002  -0.00002   2.06212
    A4        2.06214  -0.00000   0.00000  -0.00002  -0.00002   2.06212
    A5        1.98930   0.00000   0.00000   0.00004   0.00004   1.98934
    A6        2.06214  -0.00000   0.00000  -0.00002  -0.00002   2.06212
    A7        2.06214  -0.00000   0.00000  -0.00002  -0.00002   2.06212
    A8        2.06214  -0.00000   0.00000  -0.00002  -0.00002   2.06212
    A9        2.06214  -0.00000   0.00000  -0.00002  -0.00002   2.06212
   A10        1.98930   0.00000   0.00000   0.00004   0.00004   1.98934
   A11        2.06214  -0.00000   0.00000  -0.00002  -0.00002   2.06212
   A12        2.06214  -0.00000   0.00000  -0.00002  -0.00002   2.06212
   A13        2.06214  -0.00000   0.00000  -0.00002  -0.00002   2.06212
   A14        2.06214  -0.00000   0.00000  -0.00002  -0.00002   2.06212
   A15        1.98930   0.00000   0.00000   0.00004   0.00004   1.98934
    D1        0.00000   0.00000   0.00000   0.00000  -0.00000   0.00000
    D2       -2.51342  -0.00000   0.00000  -0.00003  -0.00003  -2.51345
    D3        2.51342   0.00000   0.00000   0.00003   0.00003   2.51345
    D4        0.00000  -0.00000   0.00000  -0.00000  -0.00000   0.00000
    D5        2.51342   0.00000   0.00000   0.00003   0.00003   2.51345
    D6       -0.00000  -0.00000   0.00000  -0.00000   0.00000   0.00000
    D7       -0.00000   0.00000   0.00000   0.00000   0.00000   0.00000
    D8       -2.51342  -0.00000   0.00000  -0.00003  -0.00003  -2.51345
    D9       -2.51342  -0.00000   0.00000  -0.00003  -0.00003  -2.51345
   D10       -0.00000   0.00000   0.00000  -0.00000   0.00000   0.00000
   D11       -0.00000   0.00000   0.00000   0.00000   0.00000   0.00000
   D12        2.51342   0.00000   0.00000   0.00003   0.00003   2.51345
         Item               Value     Threshold  Converged?
 Maximum Force            0.000047     0.000450     YES
 RMS     Force            0.000021     0.000300     YES
 Maximum Displacement     0.000129     0.001800     YES
 RMS     Displacement     0.000068     0.001200     YES
 Predicted change in Energy=-2.254410D-08
 Optimization completed.
    -- Stationary point found.
                           ----------------------------
                           !   Optimized Parameters   !
                           ! (Angstroms and Degrees)  !
 --------------------------                            --------------------------
 ! Name  Definition              Value          Derivative Info.                !
 --------------------------------------------------------------------------------
 ! R1    R(1,2)                  1.5082         -DE/DX =    0.0                 !
 ! R2    R(1,3)                  1.5082         -DE/DX =    0.0                 !
 ! R3    R(1,4)                  1.0857         -DE/DX =    0.0                 !
 ! R4    R(1,5)                  1.0857         -DE/DX =    0.0                 !
 ! R5    R(2,3)                  1.5082         -DE/DX =    0.0                 !
 ! R6    R(2,6)                  1.0857         -DE/DX =    0.0                 !
 ! R7    R(2,7)                  1.0857         -DE/DX =    0.0                 !
 ! R8    R(3,8)                  1.0857         -DE/DX =    0.0                 !
 ! R9    R(3,9)                  1.0857         -DE/DX =    0.0                 !
 ! A1    A(2,1,4)              118.1516         -DE/DX =    0.0                 !
 ! A2    A(2,1,5)              118.1516         -DE/DX =    0.0                 !
 ! A3    A(3,1,4)              118.1516         -DE/DX =    0.0                 !
 ! A4    A(3,1,5)              118.1516         -DE/DX =    0.0                 !
 ! A5    A(4,1,5)              113.9786         -DE/DX =    0.0                 !
 ! A6    A(1,2,6)              118.1516         -DE/DX =    0.0                 !
 ! A7    A(1,2,7)              118.1516         -DE/DX =    0.0                 !
 ! A8    A(3,2,6)              118.1516         -DE/DX =    0.0                 !
 ! A9    A(3,2,7)              118.1516         -DE/DX =    0.0                 !
 ! A10   A(6,2,7)              113.9786         -DE/DX =    0.0                 !
 ! A11   A(1,3,8)              118.1516         -DE/DX =    0.0                 !
 ! A12   A(1,3,9)              118.1516         -DE/DX =    0.0                 !
 ! A13   A(2,3,8)              118.1516         -DE/DX =    0.0                 !
 ! A14   A(2,3,9)              118.1516         -DE/DX =    0.0                 !
 ! A15   A(8,3,9)              113.9786         -DE/DX =    0.0                 !
 ! D1    D(4,1,2,6)              0.0            -DE/DX =    0.0                 !
 ! D2    D(4,1,2,7)           -144.0086         -DE/DX =    0.0                 !
 ! D3    D(5,1,2,6)            144.0086         -DE/DX =    0.0                 !
 ! D4    D(5,1,2,7)              0.0            -DE/DX =    0.0                 !
 ! D5    D(4,1,3,8)            144.0086         -DE/DX =    0.0                 !
 ! D6    D(4,1,3,9)              0.0            -DE/DX =    0.0                 !
 ! D7    D(5,1,3,8)              0.0            -DE/DX =    0.0                 !
 ! D8    D(5,1,3,9)           -144.0086         -DE/DX =    0.0                 !
 ! D9    D(6,2,3,8)           -144.0086         -DE/DX =    0.0                 !
 ! D10   D(6,2,3,9)              0.0            -DE/DX =    0.0                 !
 ! D11   D(7,2,3,8)              0.0            -DE/DX =    0.0                 !
 ! D12   D(7,2,3,9)            144.0086         -DE/DX =    0.0                 !
 --------------------------------------------------------------------------------
 GradGradGradGradGradGradGradGradGradGradGradGradGradGradGradGradGradGrad

 Leave Link  103 at Sat Aug 10 16:33:35 2019, MaxMem=  4294967296 cpu:               2.1 elap:               0.2
 Dipole is zero, so no output in dipole orientation.

 ----------------------------------------------------------------------

 Electric dipole moment (input orientation):
 (Debye = 10**-18 statcoulomb cm , SI units = C m)
                  (au)            (Debye)         (10**-30 SI)
   Tot        0.000000D+00      0.000000D+00      0.000000D+00
   x          0.000000D+00      0.000000D+00      0.000000D+00
   y          0.000000D+00      0.000000D+00      0.000000D+00
   z          0.000000D+00      0.000000D+00      0.000000D+00

 Dipole polarizability, Alpha (input orientation).
 (esu units = cm**3 , SI units = C**2 m**2 J**-1)
 Alpha(0;0):
               (au)            (10**-24 esu)      (10**-40 SI)
   iso        0.300073D+02      0.444663D+01      0.494754D+01
   aniso      0.815968D+00      0.120914D+00      0.134535D+00
   xx         0.302793D+02      0.448692D+01      0.499238D+01
   yx         0.000000D+00      0.000000D+00      0.000000D+00
   yy         0.302794D+02      0.448694D+01      0.499239D+01
   zx         0.000000D+00      0.000000D+00      0.000000D+00
   zy         0.000000D+00      0.000000D+00      0.000000D+00
   zz         0.294633D+02      0.436602D+01      0.485785D+01

 ----------------------------------------------------------------------

 Test job not archived.
 1\1\NSC-N479\Freq\RB3LYP\6-31G(d,p)\C3H6\X_KJEJO\10-Aug-2019\0\\# freq
 (hpmodes,intmodes) iop(1/33=3) b3lyp/6-31g(d,p) geom=connectivity iop(
 7/75=-1)\\name\\0,1\C,0.0000002457,0.870786,0.\C,0.7541226022,-0.43539
 30878,0.\C,-0.7541228479,-0.4353926622,0.\H,0.0000004126,1.462293,0.91
 0469\H,0.0000004126,1.462293,-0.910469\H,1.2663826073,-0.7311467323,0.
 910469\H,1.2663826073,-0.7311467323,-0.910469\H,-1.2663830199,-0.73114
 60177,-0.910469\H,-1.2663830199,-0.7311460177,0.910469\\Version=ES64L-
 G16RevB.01\State=1-A1'\HF=-117.9041571\RMSD=2.282e-09\RMSF=2.212e-05\Z
 eroPoint=0.0814847\Thermal=0.0848507\Dipole=0.,0.,0.\DipoleDeriv=0.083
 023,0.,0.,0.,-0.1224145,0.,0.,0.,0.1191041,-0.071058,0.0889541,0.,0.08
 89588,0.0316624,0.,0.,0.,0.1191042,-0.0710581,-0.088954,0.,-0.0889587,
 0.0316625,0.,0.,0.,0.1191042,0.0779885,0.,0.,0.,-0.0582909,-0.0501003,
 0.,-0.0877469,-0.0595511,0.0779885,0.,0.,0.,-0.0582909,0.0501003,0.,0.
 0877469,-0.0595511,-0.0242202,0.0590108,-0.0433891,0.05901,0.0439185,0
 .0250508,-0.0759905,0.0438738,-0.0595519,-0.0242202,0.0590108,0.043389
 1,0.05901,0.0439185,-0.0250508,0.0759904,-0.0438738,-0.0595519,-0.0242
 203,-0.0590107,-0.0433891,-0.05901,0.0439186,-0.0250508,-0.0759905,-0.
 0438738,-0.0595519,-0.0242203,-0.0590107,0.0433891,-0.05901,0.0439186,
 0.0250508,0.0759905,0.0438738,-0.0595519\Polar=30.2792668,0.,30.279357
 6,0.,0.,29.4633447\Quadrupole=-0.5095332,-0.5095332,1.0190663,0.,0.,0.
 \PG=D03H [3C2(C1),3SGV(H2)]\NImag=0\\0.22064105,0.00000012,0.62933461,
 0.,0.,0.66413782,-0.06584443,0.11695456,0.,0.52716112,0.06564718,-0.17
 126973,0.,-0.17696956,0.32281454,0.,0.,-0.07539993,0.,0.,0.66413782,-0
 .06584453,-0.11695462,0.,-0.22398228,0.02565375,0.,0.52716132,-0.06564
 724,-0.17126963,0.,-0.02565363,-0.01313188,0.,0.17696944,0.32281434,0.
 ,0.,-0.07539993,0.,0.,-0.07539993,0.,0.,0.66413782,-0.03470265,-0.0000
 0003,-0.00000004,-0.00108324,0.01029146,0.02453204,-0.00108325,-0.0102
 9146,-0.02453205,0.03633035,-0.00000003,-0.12902939,-0.12627191,-0.001
 92033,-0.01098771,-0.01303021,0.00192033,-0.01098771,-0.01303020,0.000
 00003,0.14018449,-0.00000004,-0.12942451,-0.26172254,-0.00033464,0.002
 68802,0.00252674,0.00033464,0.00268802,0.00252674,0.00000004,0.1379283
 8,0.27013411,-0.03470265,-0.00000003,0.00000004,-0.00108324,0.01029146
 ,-0.02453204,-0.00108325,-0.01029146,0.02453205,-0.00088876,0.,0.,0.03
 633035,-0.00000003,-0.12902939,0.12627191,-0.00192033,-0.01098771,0.01
 303021,0.00192033,-0.01098771,0.01303020,0.,0.01192087,-0.01448008,0.0
 0000003,0.14018449,0.00000004,0.12942451,-0.26172254,0.00033464,-0.002
 68802,0.00252674,-0.00033464,-0.00268802,0.00252674,0.,0.01448008,-0.0
 1693935,-0.00000004,-0.13792838,0.27013411,-0.00488678,0.00027565,0.00
 098154,-0.10544768,0.04084469,-0.10935466,-0.01213640,0.00830187,-0.02
 355051,0.00068064,0.00108551,-0.00049077,0.00003314,-0.00126304,0.0000
 8169,0.11422093,0.01248743,-0.00718417,0.02776048,0.04084469,-0.058284
 35,0.06313599,-0.00390991,0.00006544,-0.01473027,-0.00300411,0.0017883
 5,-0.00016614,0.00537083,-0.00233850,-0.00046632,-0.04497018,0.0622939
 1,0.00216057,-0.00163381,0.00252674,-0.11208490,0.06471229,-0.26172254
 ,0.00249521,-0.00105421,0.00252674,-0.00038927,-0.00034194,0.00117830,
 0.00036300,-0.00030390,0.00055890,0.11944946,-0.06896422,0.27013411,-0
 .00488678,0.00027565,-0.00098154,-0.10544768,0.04084469,0.10935466,-0.
 01213640,0.00830187,0.02355051,0.00003314,-0.00126304,-0.00008169,0.00
 068064,0.00108551,0.00049077,0.00871846,-0.00554673,-0.01254011,0.1142
 2093,0.01248743,-0.00718417,-0.02776048,0.04084469,-0.05828435,-0.0631
 3599,-0.00390991,0.00006544,0.01473027,0.00537083,-0.00233850,0.000466
 32,-0.00300411,0.00178835,0.00016614,-0.00554673,0.00231365,0.00724004
 ,-0.04497018,0.06229391,-0.00216057,0.00163381,0.00252674,0.11208490,-
 0.06471229,-0.26172254,-0.00249521,0.00105421,0.00252674,-0.00036300,0
 .00030390,0.00055890,0.00038927,0.00034194,0.00117830,0.01254011,-0.00
 724004,-0.01693935,-0.11944946,0.06896422,0.27013411,-0.00488679,-0.00
 027565,0.00098153,-0.01213640,-0.00830187,-0.02355051,-0.10544773,-0.0
 4084466,-0.10935470,0.00003313,0.00126304,0.00008169,0.00068064,-0.001
 08551,-0.00049077,-0.00352431,-0.00331693,0.00044469,0.00234220,0.0020
 4481,-0.00010150,0.11422099,-0.01248744,-0.00718416,-0.02776048,0.0039
 0992,0.00006545,0.01473028,-0.04084466,-0.05828431,-0.06313592,-0.0053
 7083,-0.00233849,0.00046632,0.00300411,0.00178835,0.00016614,0.0033169
 4,0.00121895,-0.00016242,-0.00204481,0.00012679,-0.00050809,0.04497015
 ,0.06229386,0.00216058,0.00163381,0.00252674,0.00249521,0.00105421,0.0
 0252674,-0.11208494,-0.06471223,-0.26172254,0.00036300,0.00030390,0.00
 055890,-0.00038927,0.00034194,0.00117830,0.00044469,0.00016242,0.00055
 890,0.00010150,-0.00050809,0.00117830,0.11944950,0.06896416,0.27013411
 ,-0.00488679,-0.00027565,-0.00098153,-0.01213640,-0.00830187,0.0235505
 1,-0.10544773,-0.04084466,0.10935470,0.00068064,-0.00108551,0.00049077
 ,0.00003313,0.00126304,-0.00008169,0.00234220,0.00204481,0.00010150,-0
 .00352431,-0.00331693,-0.00044469,0.00871846,0.00554673,-0.01254012,0.
 11422099,-0.01248744,-0.00718416,0.02776048,0.00390992,0.00006545,-0.0
 1473028,-0.04084466,-0.05828431,0.06313592,0.00300411,0.00178835,-0.00
 016614,-0.00537083,-0.00233849,-0.00046632,-0.00204481,0.00012679,0.00
 050809,0.00331694,0.00121895,0.00016242,0.00554673,0.00231364,-0.00724
 004,0.04497015,0.06229386,-0.00216058,-0.00163381,0.00252674,-0.002495
 21,-0.00105421,0.00252674,0.11208494,0.06471223,-0.26172254,0.00038927
 ,-0.00034194,0.00117830,-0.00036300,-0.00030390,0.00055890,-0.00010150
 ,0.00050809,0.00117830,-0.00044469,-0.00016242,0.00055890,0.01254012,0
 .00724004,-0.01693935,-0.11944950,-0.06896416,0.27013411\\0.,-0.000002
 31,0.,-0.00000200,0.00000115,0.,0.00000200,0.00000115,0.,0.,-0.0000229
 8,-0.00004087,0.,-0.00002298,0.00004087,-0.00001990,0.00001149,-0.0000
 4087,-0.00001990,0.00001149,0.00004087,0.00001990,0.00001149,0.0000408
 7,0.00001990,0.00001149,-0.00004087\\\@


 ALL OUR THINKING ABOUT NATURE MUST NECESSARILY MOVE IN CIRCLES OR SPIRALS;
 FOR WE CAN ONLY UNDERSTAND NATURE IF WE THINK ABOUT HER, AND WE CAN ONLY
 THINK BECAUSE OUR BRAIN IS BUILT IN ACCORDANCE WITH NATURE'S LAWS.

                                             -- TIMOTHY FERRIS, "GALAXIES"
 Job cpu time:       0 days  0 hours  2 minutes 13.6 seconds.
 Elapsed time:       0 days  0 hours  0 minutes 10.0 seconds.
 File lengths (MBytes):  RWF=      6 Int=      0 D2E=      0 Chk=      8 Scr=      1
 Normal termination of Gaussian 16 at Sat Aug 10 16:33:35 2019.
