 Entering Gaussian System, Link 0=/software/sse/easybuild/prefix/software/Gaussian/16.B.01-avx2-nsc1-bdist/g16/g16.orig
 Input=freq-hp.wrap
 Output=freq-hp.log
 Initial command:
 /software/sse/easybuild/prefix/software/Gaussian/16.B.01-avx2-nsc1-bdist/g16/l1.exe "/scratch/local/Gau-357344.inp" -scrdir="/scratch/local/"
 Default is to use a total of  16 processors:
                               16 via shared-memory
                                1 via Linda
 Entering Link 1 = /software/sse/easybuild/prefix/software/Gaussian/16.B.01-avx2-nsc1-bdist/g16/l1.exe PID=    357350.
  
 Copyright (c) 1988-2017, Gaussian, Inc.  All Rights Reserved.
  
 This is part of the Gaussian(R) 16 program.  It is based on
 the Gaussian(R) 09 system (copyright 2009, Gaussian, Inc.),
 the Gaussian(R) 03 system (copyright 2003, Gaussian, Inc.),
 the Gaussian(R) 98 system (copyright 1998, Gaussian, Inc.),
 the Gaussian(R) 94 system (copyright 1995, Gaussian, Inc.),
 the Gaussian 92(TM) system (copyright 1992, Gaussian, Inc.),
 the Gaussian 90(TM) system (copyright 1990, Gaussian, Inc.),
 the Gaussian 88(TM) system (copyright 1988, Gaussian, Inc.),
 the Gaussian 86(TM) system (copyright 1986, Carnegie Mellon
 University), and the Gaussian 82(TM) system (copyright 1983,
 Carnegie Mellon University). Gaussian is a federally registered
 trademark of Gaussian, Inc.
  
 This software contains proprietary and confidential information,
 including trade secrets, belonging to Gaussian, Inc.
  
 This software is provided under written license and may be
 used, copied, transmitted, or stored only in accord with that
 written license.
  
 The following legend is applicable only to US Government
 contracts under FAR:
  
                    RESTRICTED RIGHTS LEGEND
  
 Use, reproduction and disclosure by the US Government is
 subject to restrictions as set forth in subparagraphs (a)
 and (c) of the Commercial Computer Software - Restricted
 Rights clause in FAR 52.227-19.
  
 Gaussian, Inc.
 340 Quinnipiac St., Bldg. 40, Wallingford CT 06492
  
  
 ---------------------------------------------------------------
 Warning -- This program may not be used in any manner that
 competes with the business of Gaussian, Inc. or will provide
 assistance to any competitor of Gaussian, Inc.  The licensee
 of this program is prohibited from giving any competitor of
 Gaussian, Inc. access to this program.  By using this program,
 the user acknowledges that Gaussian, Inc. is engaged in the
 business of creating and licensing software in the field of
 computational chemistry and represents and warrants to the
 licensee that it is not a competitor of Gaussian, Inc. and that
 it will not use this program in any manner prohibited above.
 ---------------------------------------------------------------
  

 Cite this work as:
 Gaussian 16, Revision B.01,
 M. J. Frisch, G. W. Trucks, H. B. Schlegel, G. E. Scuseria, 
 M. A. Robb, J. R. Cheeseman, G. Scalmani, V. Barone, 
 G. A. Petersson, H. Nakatsuji, X. Li, M. Caricato, A. V. Marenich, 
 J. Bloino, B. G. Janesko, R. Gomperts, B. Mennucci, H. P. Hratchian, 
 J. V. Ortiz, A. F. Izmaylov, J. L. Sonnenberg, D. Williams-Young, 
 F. Ding, F. Lipparini, F. Egidi, J. Goings, B. Peng, A. Petrone, 
 T. Henderson, D. Ranasinghe, V. G. Zakrzewski, J. Gao, N. Rega, 
 G. Zheng, W. Liang, M. Hada, M. Ehara, K. Toyota, R. Fukuda, 
 J. Hasegawa, M. Ishida, T. Nakajima, Y. Honda, O. Kitao, H. Nakai, 
 T. Vreven, K. Throssell, J. A. Montgomery, Jr., J. E. Peralta, 
 F. Ogliaro, M. J. Bearpark, J. J. Heyd, E. N. Brothers, K. N. Kudin, 
 V. N. Staroverov, T. A. Keith, R. Kobayashi, J. Normand, 
 K. Raghavachari, A. P. Rendell, J. C. Burant, S. S. Iyengar, 
 J. Tomasi, M. Cossi, J. M. Millam, M. Klene, C. Adamo, R. Cammi, 
 J. W. Ochterski, R. L. Martin, K. Morokuma, O. Farkas, 
 J. B. Foresman, and D. J. Fox, Gaussian, Inc., Wallingford CT, 2016.
 
 ******************************************
 Gaussian 16:  ES64L-G16RevB.01 20-Dec-2017
                10-Aug-2019 
 ******************************************
 %chk=freq.chk
 ----------------------------------------------------------------------
 # freq(hpmodes,intmodes) iop(1/33=3) b3lyp/6-31g(d,p) geom=connectivit
 y iop(7/75=-1)
 ----------------------------------------------------------------------
 1/10=4,18=20,30=1,33=3,38=1,57=2/1,3;
 2/9=110,12=2,17=6,18=5,40=1/2;
 3/5=1,6=6,7=101,11=2,25=1,30=1,71=2,74=-5,140=1/1,2,3;
 4//1;
 5/5=2,38=5,98=1/2;
 8/6=4,10=90,11=11/1;
 11/6=1,8=1,9=11,15=111,16=1/1,2,10;
 10/6=1/2;
 6/7=2,8=2,9=2,10=2,28=1/1;
 7/8=31,10=1,25=1,75=-1/1,2,3,16;
 1/10=4,18=20,30=1,33=3/3;
 99//99;
 ONIOM results not found on unit 2.
 ----
 name
 ----
 TstMul:  ICh=     0
 TstMul:  Mul=     1
 TstMul:  ICh=     0
 TstMul:  Mul=     1
 Symbolic Z-matrix:
 Charge =  0 Multiplicity = 1
 C                     0.        0.66781  -1.25847 
 C                     0.       -0.66781  -1.25847 
 O                     0.        0.        0.97199 
 H                     0.        1.35972  -2.0898 
 H                     0.       -1.35972  -2.0898 
 C                     0.        1.13197   0.15884 
 C                     0.       -1.13197   0.15884 
 O                     0.        2.24553   0.59995 
 O                     0.       -2.24553   0.59995 
 
 RdStrC is calling ZToCFu for IStruc=1 NZ=     9.
                                ZToCFu                                
 ---------------------------------------------------------------------
 Center     Atomic      Atomic             Coordinates (Angstroms)
 Number     Number       Type             X           Y           Z
 ---------------------------------------------------------------------
      1          6           0        0.000000    0.667812   -1.258474
      2          6           0        0.000000   -0.667812   -1.258474
      3          8           0        0.000000    0.000000    0.971992
      4          1           0        0.000000    1.359716   -2.089795
      5          1           0        0.000000   -1.359716   -2.089795
      6          6           0        0.000000    1.131968    0.158843
      7          6           0        0.000000   -1.131968    0.158843
      8          8           0        0.000000    2.245534    0.599952
      9          8           0        0.000000   -2.245534    0.599952
 ---------------------------------------------------------------------
 Connectivity in DoCon:
 I=     1 IAn=  6 IBond, RBType=     2  2.00     4  1.00     6  1.00
 I=     2 IAn=  6 IBond, RBType=     1  2.00     5  1.00     7  1.00
 I=     3 IAn=  8 IBond, RBType=     6  1.00     7  1.00
 I=     4 IAn=  1 IBond, RBType=     1  1.00
 I=     5 IAn=  1 IBond, RBType=     2  1.00
 I=     6 IAn=  6 IBond, RBType=     1  1.00     3  1.00     8  2.00
 I=     7 IAn=  6 IBond, RBType=     2  1.00     3  1.00     9  2.00
 I=     8 IAn=  8 IBond, RBType=     6  2.00
 I=     9 IAn=  8 IBond, RBType=     7  2.00
 After GenITR:
 ITRead=  0  0  0  0  0  0  0  0  0
 MicOpt= -1 -1 -1 -1 -1 -1 -1 -1 -1
 List IsCon N=      9 M=      2:
 I=      1 Vals=      2      2 |      4      1 |      6      1 |
 I=      2 Vals=      1      2 |      5      1 |      7      1 |
 I=      3 Vals=      6      1 |      7      1 |
 I=      4 Vals=      1      1 |
 I=      5 Vals=      2      1 |
 I=      6 Vals=      1      1 |      3      1 |      8      2 |
 I=      7 Vals=      2      1 |      3      1 |      9      2 |
 I=      8 Vals=      6      2 |
 I=      9 Vals=      7      2 |
 Coordinate R1 contains atom 1 which is already in QM block.
 Coordinate R1 contains atom 2 which is already in QM block.
 Coordinate R2 contains atom 1 which is already in QM block.
 Coordinate R2 contains atom 4 which is already in QM block.
 Coordinate R3 contains atom 1 which is already in QM block.
 Coordinate R3 contains atom 6 which is already in QM block.
 Coordinate R4 contains atom 2 which is already in QM block.
 Coordinate R4 contains atom 5 which is already in QM block.
 Coordinate R5 contains atom 2 which is already in QM block.
 Coordinate R5 contains atom 7 which is already in QM block.
 Coordinate R6 contains atom 3 which is already in QM block.
 Coordinate R6 contains atom 6 which is already in QM block.
 Coordinate R7 contains atom 3 which is already in QM block.
 Coordinate R7 contains atom 7 which is already in QM block.
 Coordinate R8 contains atom 6 which is already in QM block.
 Coordinate R8 contains atom 8 which is already in QM block.
 Coordinate R9 contains atom 7 which is already in QM block.
 Coordinate R9 contains atom 9 which is already in QM block.
 Coordinate A1 contains atom 2 which is already in QM block.
 Coordinate A1 contains atom 1 which is already in QM block.
 Coordinate A1 contains atom 1 which is already in QM block.
 Coordinate A2 contains atom 2 which is already in QM block.
 Coordinate A2 contains atom 1 which is already in QM block.
 Coordinate A2 contains atom 1 which is already in QM block.
 Coordinate A3 contains atom 4 which is already in QM block.
 Coordinate A3 contains atom 1 which is already in QM block.
 Coordinate A3 contains atom 1 which is already in QM block.
 Coordinate A4 contains atom 1 which is already in QM block.
 Coordinate A4 contains atom 2 which is already in QM block.
 Coordinate A4 contains atom 2 which is already in QM block.
 Coordinate A5 contains atom 1 which is already in QM block.
 Coordinate A5 contains atom 2 which is already in QM block.
 Coordinate A5 contains atom 2 which is already in QM block.
 Coordinate A6 contains atom 5 which is already in QM block.
 Coordinate A6 contains atom 2 which is already in QM block.
 Coordinate A6 contains atom 2 which is already in QM block.
 Coordinate A7 contains atom 6 which is already in QM block.
 Coordinate A7 contains atom 3 which is already in QM block.
 Coordinate A7 contains atom 3 which is already in QM block.
 Coordinate A8 contains atom 1 which is already in QM block.
 Coordinate A8 contains atom 6 which is already in QM block.
 Coordinate A8 contains atom 6 which is already in QM block.
 Coordinate A9 contains atom 1 which is already in QM block.
 Coordinate A9 contains atom 6 which is already in QM block.
 Coordinate A9 contains atom 6 which is already in QM block.
 Coordinate A10 contains atom 3 which is already in QM block.
 Coordinate A10 contains atom 6 which is already in QM block.
 Coordinate A10 contains atom 6 which is already in QM block.
 Coordinate A11 contains atom 2 which is already in QM block.
 Coordinate A11 contains atom 7 which is already in QM block.
 Coordinate A11 contains atom 7 which is already in QM block.
 Coordinate A12 contains atom 2 which is already in QM block.
 Coordinate A12 contains atom 7 which is already in QM block.
 Coordinate A12 contains atom 7 which is already in QM block.
 Coordinate A13 contains atom 3 which is already in QM block.
 Coordinate A13 contains atom 7 which is already in QM block.
 Coordinate A13 contains atom 7 which is already in QM block.
 Coordinate D1 contains atom 4 which is already in QM block.
 Coordinate D1 contains atom 1 which is already in QM block.
 Coordinate D1 contains atom 2 which is already in QM block.
 Coordinate D1 contains atom 5 which is already in QM block.
 Coordinate D2 contains atom 4 which is already in QM block.
 Coordinate D2 contains atom 1 which is already in QM block.
 Coordinate D2 contains atom 2 which is already in QM block.
 Coordinate D2 contains atom 7 which is already in QM block.
 Coordinate D3 contains atom 6 which is already in QM block.
 Coordinate D3 contains atom 1 which is already in QM block.
 Coordinate D3 contains atom 2 which is already in QM block.
 Coordinate D3 contains atom 5 which is already in QM block.
 Coordinate D4 contains atom 6 which is already in QM block.
 Coordinate D4 contains atom 1 which is already in QM block.
 Coordinate D4 contains atom 2 which is already in QM block.
 Coordinate D4 contains atom 7 which is already in QM block.
 Coordinate D5 contains atom 2 which is already in QM block.
 Coordinate D5 contains atom 1 which is already in QM block.
 Coordinate D5 contains atom 6 which is already in QM block.
 Coordinate D5 contains atom 3 which is already in QM block.
 Coordinate D6 contains atom 2 which is already in QM block.
 Coordinate D6 contains atom 1 which is already in QM block.
 Coordinate D6 contains atom 6 which is already in QM block.
 Coordinate D6 contains atom 8 which is already in QM block.
 Coordinate D7 contains atom 4 which is already in QM block.
 Coordinate D7 contains atom 1 which is already in QM block.
 Coordinate D7 contains atom 6 which is already in QM block.
 Coordinate D7 contains atom 3 which is already in QM block.
 Coordinate D8 contains atom 4 which is already in QM block.
 Coordinate D8 contains atom 1 which is already in QM block.
 Coordinate D8 contains atom 6 which is already in QM block.
 Coordinate D8 contains atom 8 which is already in QM block.
 Coordinate D9 contains atom 1 which is already in QM block.
 Coordinate D9 contains atom 2 which is already in QM block.
 Coordinate D9 contains atom 7 which is already in QM block.
 Coordinate D9 contains atom 3 which is already in QM block.
 Coordinate D10 contains atom 1 which is already in QM block.
 Coordinate D10 contains atom 2 which is already in QM block.
 Coordinate D10 contains atom 7 which is already in QM block.
 Coordinate D10 contains atom 9 which is already in QM block.
 Coordinate D11 contains atom 5 which is already in QM block.
 Coordinate D11 contains atom 2 which is already in QM block.
 Coordinate D11 contains atom 7 which is already in QM block.
 Coordinate D11 contains atom 3 which is already in QM block.
 Coordinate D12 contains atom 5 which is already in QM block.
 Coordinate D12 contains atom 2 which is already in QM block.
 Coordinate D12 contains atom 7 which is already in QM block.
 Coordinate D12 contains atom 9 which is already in QM block.
 Coordinate D13 contains atom 7 which is already in QM block.
 Coordinate D13 contains atom 3 which is already in QM block.
 Coordinate D13 contains atom 6 which is already in QM block.
 Coordinate D13 contains atom 1 which is already in QM block.
 Coordinate D14 contains atom 7 which is already in QM block.
 Coordinate D14 contains atom 3 which is already in QM block.
 Coordinate D14 contains atom 6 which is already in QM block.
 Coordinate D14 contains atom 8 which is already in QM block.
 Coordinate D15 contains atom 6 which is already in QM block.
 Coordinate D15 contains atom 3 which is already in QM block.
 Coordinate D15 contains atom 7 which is already in QM block.
 Coordinate D15 contains atom 2 which is already in QM block.
 Coordinate D16 contains atom 6 which is already in QM block.
 Coordinate D16 contains atom 3 which is already in QM block.
 Coordinate D16 contains atom 7 which is already in QM block.
 Coordinate D16 contains atom 9 which is already in QM block.
 Saved connectivity
 I=     1 IAn=  6 IBond, RBType=     2  2.00     4  1.00     6  1.00
 I=     2 IAn=  6 IBond, RBType=     1  2.00     5  1.00     7  1.00
 I=     3 IAn=  8 IBond, RBType=     6  1.00     7  1.00
 I=     4 IAn=  1 IBond, RBType=     1  1.00
 I=     5 IAn=  1 IBond, RBType=     2  1.00
 I=     6 IAn=  6 IBond, RBType=     1  1.00     3  1.00     8  2.00
 I=     7 IAn=  6 IBond, RBType=     2  1.00     3  1.00     9  2.00
 I=     8 IAn=  8 IBond, RBType=     6  2.00
 I=     9 IAn=  8 IBond, RBType=     7  2.00
 ITRead=  0  0  0  0  0  0  0  0  0
 MicOpt= -1 -1 -1 -1 -1 -1 -1 -1 -1
 NAtoms=      9 NQM=        9 NQMF=       0 NMMI=      0 NMMIF=      0
                NMic=       0 NMicF=      0.
 No MM parameters found.
 Leave Link  101 at Sat Aug 10 16:33:45 2019, MaxMem=  4294967296 cpu:               5.6 elap:               0.4

 GradGradGradGradGradGradGradGradGradGradGradGradGradGradGradGradGradGrad
 Berny optimization.
 GetPCM: File not found, return IValue=0.
 Optmz: redundant internal coordinate code flag= 1
 Initialization pass.
                           ----------------------------
                           !    Initial Parameters    !
                           ! (Angstroms and Degrees)  !
 --------------------------                            --------------------------
 ! Name  Definition              Value          Derivative Info.                !
 --------------------------------------------------------------------------------
 ! R1    R(1,2)                  1.3356         calculate D2E/DX2 analytically  !
 ! R2    R(1,4)                  1.0816         calculate D2E/DX2 analytically  !
 ! R3    R(1,6)                  1.4914         calculate D2E/DX2 analytically  !
 ! R4    R(2,5)                  1.0816         calculate D2E/DX2 analytically  !
 ! R5    R(2,7)                  1.4914         calculate D2E/DX2 analytically  !
 ! R6    R(3,6)                  1.3938         calculate D2E/DX2 analytically  !
 ! R7    R(3,7)                  1.3938         calculate D2E/DX2 analytically  !
 ! R8    R(6,8)                  1.1978         calculate D2E/DX2 analytically  !
 ! R9    R(7,9)                  1.1978         calculate D2E/DX2 analytically  !
 ! A1    A(2,1,4)              129.7704         calculate D2E/DX2 analytically  !
 ! A2    A(2,1,6)              108.1331         calculate D2E/DX2 analytically  !
 ! A3    A(4,1,6)              122.0965         calculate D2E/DX2 analytically  !
 ! A4    A(1,2,5)              129.7704         calculate D2E/DX2 analytically  !
 ! A5    A(1,2,7)              108.1331         calculate D2E/DX2 analytically  !
 ! A6    A(5,2,7)              122.0965         calculate D2E/DX2 analytically  !
 ! A7    A(6,3,7)              108.6169         calculate D2E/DX2 analytically  !
 ! A8    A(1,6,3)              107.5585         calculate D2E/DX2 analytically  !
 ! A9    A(1,6,8)              129.7427         calculate D2E/DX2 analytically  !
 ! A10   A(3,6,8)              122.6988         calculate D2E/DX2 analytically  !
 ! A11   A(2,7,3)              107.5585         calculate D2E/DX2 analytically  !
 ! A12   A(2,7,9)              129.7427         calculate D2E/DX2 analytically  !
 ! A13   A(3,7,9)              122.6988         calculate D2E/DX2 analytically  !
 ! D1    D(4,1,2,5)              0.0            calculate D2E/DX2 analytically  !
 ! D2    D(4,1,2,7)            180.0            calculate D2E/DX2 analytically  !
 ! D3    D(6,1,2,5)            180.0            calculate D2E/DX2 analytically  !
 ! D4    D(6,1,2,7)              0.0            calculate D2E/DX2 analytically  !
 ! D5    D(2,1,6,3)              0.0            calculate D2E/DX2 analytically  !
 ! D6    D(2,1,6,8)            180.0            calculate D2E/DX2 analytically  !
 ! D7    D(4,1,6,3)            180.0            calculate D2E/DX2 analytically  !
 ! D8    D(4,1,6,8)              0.0            calculate D2E/DX2 analytically  !
 ! D9    D(1,2,7,3)              0.0            calculate D2E/DX2 analytically  !
 ! D10   D(1,2,7,9)            180.0            calculate D2E/DX2 analytically  !
 ! D11   D(5,2,7,3)            180.0            calculate D2E/DX2 analytically  !
 ! D12   D(5,2,7,9)              0.0            calculate D2E/DX2 analytically  !
 ! D13   D(7,3,6,1)              0.0            calculate D2E/DX2 analytically  !
 ! D14   D(7,3,6,8)            180.0            calculate D2E/DX2 analytically  !
 ! D15   D(6,3,7,2)              0.0            calculate D2E/DX2 analytically  !
 ! D16   D(6,3,7,9)            180.0            calculate D2E/DX2 analytically  !
 --------------------------------------------------------------------------------
 Maximum allowed force set to 1.00D+20.
 Trust Radius=3.00D-01 FncErr=1.00D-07 GrdErr=1.00D-07 EigMax=2.50D+02 EigMin=1.00D-04
 Number of steps in this run=      2 maximum allowed number of steps=      2.
 GradGradGradGradGradGradGradGradGradGradGradGradGradGradGradGradGradGrad

 Leave Link  103 at Sat Aug 10 16:33:45 2019, MaxMem=  4294967296 cpu:               0.1 elap:               0.0
                          Input orientation:                          
 ---------------------------------------------------------------------
 Center     Atomic      Atomic             Coordinates (Angstroms)
 Number     Number       Type             X           Y           Z
 ---------------------------------------------------------------------
      1          6           0        0.000000    0.667812   -1.258474
      2          6           0        0.000000   -0.667812   -1.258474
      3          8           0        0.000000    0.000000    0.971992
      4          1           0        0.000000    1.359716   -2.089795
      5          1           0        0.000000   -1.359716   -2.089795
      6          6           0        0.000000    1.131968    0.158843
      7          6           0        0.000000   -1.131968    0.158843
      8          8           0        0.000000    2.245534    0.599952
      9          8           0        0.000000   -2.245534    0.599952
 ---------------------------------------------------------------------
                    Distance matrix (angstroms):
                    1          2          3          4          5
     1  C    0.000000
     2  C    1.335624   0.000000
     3  O    2.328294   2.328294   0.000000
     4  H    1.081585   2.191338   3.350129   0.000000
     5  H    2.191338   1.081585   3.350129   2.719432   0.000000
     6  C    1.491385   2.290850   1.393759   2.260142   3.356317
     7  C    2.290850   1.491385   1.393759   3.356317   2.260142
     8  O    2.437817   3.455623   2.276145   2.831857   4.498063
     9  O    3.455623   2.437817   2.276145   4.498063   2.831857
                    6          7          8          9
     6  C    0.000000
     7  C    2.263936   0.000000
     8  O    1.197751   3.406185   0.000000
     9  O    3.406185   1.197751   4.491068   0.000000
 Stoichiometry    C4H2O3
 Framework group  C2V[C2(O),SGV(C4H2O2)]
 Deg. of freedom     8
 Full point group                 C2V     NOp   4
 Largest Abelian subgroup         C2V     NOp   4
 Largest concise Abelian subgroup C2      NOp   2
                         Standard orientation:                         
 ---------------------------------------------------------------------
 Center     Atomic      Atomic             Coordinates (Angstroms)
 Number     Number       Type             X           Y           Z
 ---------------------------------------------------------------------
      1          6           0        0.000000    0.667812   -1.258474
      2          6           0       -0.000000   -0.667812   -1.258474
      3          8           0        0.000000   -0.000000    0.971992
      4          1           0        0.000000    1.359716   -2.089795
      5          1           0       -0.000000   -1.359716   -2.089795
      6          6           0        0.000000    1.131968    0.158843
      7          6           0       -0.000000   -1.131968    0.158843
      8          8           0        0.000000    2.245534    0.599952
      9          8           0       -0.000000   -2.245534    0.599952
 ---------------------------------------------------------------------
 Rotational constants (GHZ):           6.8414660           2.4474908           1.8026163
 Standard basis: 6-31G(d,p) (6D, 7F)
 There are    45 symmetry adapted cartesian basis functions of A1  symmetry.
 There are    14 symmetry adapted cartesian basis functions of A2  symmetry.
 There are    16 symmetry adapted cartesian basis functions of B1  symmetry.
 There are    40 symmetry adapted cartesian basis functions of B2  symmetry.
 There are    45 symmetry adapted basis functions of A1  symmetry.
 There are    14 symmetry adapted basis functions of A2  symmetry.
 There are    16 symmetry adapted basis functions of B1  symmetry.
 There are    40 symmetry adapted basis functions of B2  symmetry.
   115 basis functions,   210 primitive gaussians,   115 cartesian basis functions
    25 alpha electrons       25 beta electrons
       nuclear repulsion energy       274.3567978931 Hartrees.
 NAtoms=    9 NActive=    9 NUniq=    5 SFac= 3.24D+00 NAtFMM=   60 NAOKFM=F Big=F
 Integral buffers will be    131072 words long.
 Raffenetti 2 integral format.
 Two-electron integral symmetry is turned on.
 One-electron integrals computed using PRISM.
 NBasis=   115 RedAO= T EigKep=  1.16D-03  NBF=    45    14    16    40
 NBsUse=   115 1.00D-06 EigRej= -1.00D+00 NBFU=    45    14    16    40
 ExpMin= 1.61D-01 ExpMax= 5.48D+03 ExpMxC= 8.25D+02 IAcc=3 IRadAn=         5 AccDes= 0.00D+00
 Harris functional with IExCor=  402 and IRadAn=       5 diagonalized for initial guess.
 HarFok:  IExCor=  402 AccDes= 0.00D+00 IRadAn=         5 IDoV= 1 UseB2=F ITyADJ=14
 ICtDFT=  3500011 ScaDFX=  1.000000  1.000000  1.000000  1.000000
 FoFCou: FMM=F IPFlag=           0 FMFlag=      100000 FMFlg1=           0
         NFxFlg=           0 DoJE=T BraDBF=F KetDBF=T FulRan=T
         wScrn=  0.000000 ICntrl=       500 IOpCl=  0 I1Cent=   200000004 NGrid=           0
         NMat0=    1 NMatS0=      1 NMatT0=    0 NMatD0=    1 NMtDS0=    0 NMtDT0=    0
 Petite list used in FoFCou.
 Initial guess orbital symmetries:
       Occupied  (B2) (A1) (A1) (A1) (B2) (B2) (A1) (A1) (B2) (A1)
                 (A1) (B2) (B2) (A1) (A1) (B2) (A1) (B1) (B2) (A2)
                 (A1) (B1) (A1) (B1) (B2)
       Virtual   (A2) (B1) (A2) (A1) (A1) (B2) (B2) (A1) (B2) (A1)
                 (B2) (B2) (A1) (B1) (A1) (B2) (A2) (B1) (B2) (A1)
                 (A1) (A2) (B2) (A1) (B2) (A1) (B2) (B1) (A1) (A1)
                 (B2) (B1) (A2) (B2) (A1) (B2) (A1) (B1) (A2) (B1)
                 (B2) (A2) (B1) (B2) (A1) (A1) (A1) (B1) (B2) (B2)
                 (A2) (A1) (B2) (A1) (A1) (A1) (A2) (B1) (A1) (B2)
                 (A2) (B1) (B2) (A1) (B1) (B2) (A1) (A2) (A2) (B2)
                 (B2) (A1) (B1) (A2) (B2) (A1) (B2) (A1) (B2) (A1)
                 (A1) (B2) (B2) (A1) (B2) (A1) (A1) (A1) (B2) (B2)
 The electronic state of the initial guess is 1-A1.
 Keep R1 ints in memory in symmetry-blocked form, NReq=37290352.
 Requested convergence on RMS density matrix=1.00D-08 within 128 cycles.
 Requested convergence on MAX density matrix=1.00D-06.
 Requested convergence on             energy=1.00D-06.
 No special actions if energy rises.
 Integral accuracy reduced to 1.0D-05 until final iterations.
 Initial convergence to 1.0D-05 achieved.  Increase integral accuracy.
 SCF Done:  E(RB3LYP) =  -379.292721936     A.U. after   13 cycles
            NFock= 13  Conv=0.88D-08     -V/T= 2.0088
 DoSCS=F DFT=T ScalE2(SS,OS)=  1.000000  1.000000
 Range of M.O.s used for correlation:     1   115
 NBasis=   115 NAE=    25 NBE=    25 NFC=     0 NFV=     0
 NROrb=    115 NOA=    25 NOB=    25 NVA=    90 NVB=    90
 Symmetrizing basis deriv contribution to polar:
 IMax=3 JMax=2 DiffMx= 0.00D+00
 G2DrvN: will do    10 centers at a time, making    1 passes.
 Calling FoFCou, ICntrl=  3107 FMM=F I1Cent=   0 AccDes= 0.00D+00.
 End of G2Drv F.D. properties file   721 does not exist.
 End of G2Drv F.D. properties file   722 does not exist.
 End of G2Drv F.D. properties file   788 does not exist.
          IDoAtm=111111111
          Differentiating once with respect to electric field.
                with respect to dipole field.
          Differentiating once with respect to nuclear coordinates.
 Keep R1 ints in memory in symmetry-blocked form, NReq=37242933.
          There are    18 degrees of freedom in the 1st order CPHF.  IDoFFX=4 NUNeed=    18.
     18 vectors produced by pass  0 Test12= 1.25D-14 5.56D-09 XBig12= 1.21D+02 9.41D+00.
 AX will form    18 AO Fock derivatives at one time.
     18 vectors produced by pass  1 Test12= 1.25D-14 5.56D-09 XBig12= 2.75D+01 1.26D+00.
     18 vectors produced by pass  2 Test12= 1.25D-14 5.56D-09 XBig12= 9.05D-01 2.00D-01.
     18 vectors produced by pass  3 Test12= 1.25D-14 5.56D-09 XBig12= 1.88D-02 4.06D-02.
     18 vectors produced by pass  4 Test12= 1.25D-14 5.56D-09 XBig12= 1.69D-04 2.99D-03.
     18 vectors produced by pass  5 Test12= 1.25D-14 5.56D-09 XBig12= 3.44D-07 1.31D-04.
     12 vectors produced by pass  6 Test12= 1.25D-14 5.56D-09 XBig12= 4.14D-10 4.52D-06.
      3 vectors produced by pass  7 Test12= 1.25D-14 5.56D-09 XBig12= 7.13D-13 1.41D-07.
      1 vectors produced by pass  8 Test12= 1.25D-14 5.56D-09 XBig12= 1.24D-15 5.93D-09.
 InvSVY:  IOpt=1 It=  1 EMax= 1.78D-15
 Solved reduced A of dimension   124 with    18 vectors.
 Isotropic polarizability for W=    0.000000       44.30 Bohr**3.
 End of Minotr F.D. properties file   721 does not exist.
 End of Minotr F.D. properties file   722 does not exist.
 End of Minotr F.D. properties file   788 does not exist.

 **********************************************************************

            Population analysis using the SCF Density.

 **********************************************************************

 Orbital symmetries:
       Occupied  (A1) (B2) (A1) (B2) (A1) (A1) (B2) (A1) (B2) (A1)
                 (A1) (B2) (B2) (A1) (A1) (B1) (B2) (A1) (B2) (A2)
                 (A1) (B1) (B1) (A1) (B2)
       Virtual   (A2) (B1) (A2) (A1) (B2) (A1) (B2) (A1) (B2) (A1)
                 (B2) (B2) (B1) (A1) (A1) (B1) (A2) (B2) (A1) (B2)
                 (A2) (A1) (B2) (A1) (B2) (A1) (B2) (A1) (B1) (A1)
                 (B2) (B1) (A2) (B2) (A1) (B2) (A1) (A2) (B1) (B1)
                 (B2) (A2) (B1) (B2) (A1) (A1) (A1) (B1) (B2) (B2)
                 (A1) (A2) (A1) (B2) (A1) (A2) (A1) (B1) (A1) (B2)
                 (A2) (B1) (B2) (A1) (B1) (B2) (A1) (A2) (A2) (B2)
                 (B2) (A1) (B1) (A2) (B2) (A1) (B2) (B2) (A1) (A1)
                 (A1) (B2) (B2) (A1) (B2) (A1) (A1) (A1) (B2) (B2)
 The electronic state is 1-A1.
 Alpha  occ. eigenvalues --  -19.22794 -19.18059 -19.18058 -10.35456 -10.35454
 Alpha  occ. eigenvalues --  -10.25837 -10.25750  -1.15250  -1.08988  -1.05186
 Alpha  occ. eigenvalues --   -0.85808  -0.70954  -0.64262  -0.60582  -0.52364
 Alpha  occ. eigenvalues --   -0.50824  -0.48776  -0.47176  -0.45163  -0.42647
 Alpha  occ. eigenvalues --   -0.42002  -0.34706  -0.33150  -0.32674  -0.29924
 Alpha virt. eigenvalues --   -0.11734   0.02358   0.05018   0.09014   0.12250
 Alpha virt. eigenvalues --    0.14099   0.18357   0.21052   0.27815   0.29545
 Alpha virt. eigenvalues --    0.38760   0.39407   0.46752   0.47977   0.49197
 Alpha virt. eigenvalues --    0.55388   0.55911   0.58195   0.59725   0.62331
 Alpha virt. eigenvalues --    0.63800   0.64791   0.74304   0.75705   0.78337
 Alpha virt. eigenvalues --    0.79305   0.84899   0.89256   0.92544   0.95081
 Alpha virt. eigenvalues --    0.95819   0.99005   1.01842   1.02259   1.07043
 Alpha virt. eigenvalues --    1.11976   1.12709   1.27083   1.27892   1.32685
 Alpha virt. eigenvalues --    1.35175   1.40072   1.43124   1.48398   1.50281
 Alpha virt. eigenvalues --    1.58097   1.69732   1.72695   1.73898   1.74907
 Alpha virt. eigenvalues --    1.76256   1.77114   1.77789   1.77929   1.86620
 Alpha virt. eigenvalues --    1.91497   1.92326   1.96190   2.00537   2.03349
 Alpha virt. eigenvalues --    2.14617   2.21554   2.23863   2.28442   2.33382
 Alpha virt. eigenvalues --    2.38729   2.45284   2.46434   2.50615   2.52687
 Alpha virt. eigenvalues --    2.56356   2.62011   2.67786   2.72924   2.74372
 Alpha virt. eigenvalues --    2.83745   2.91876   2.98356   2.98462   3.06851
 Alpha virt. eigenvalues --    3.25639   3.27288   3.64170   3.93644   3.99065
 Alpha virt. eigenvalues --    4.12977   4.31657   4.43808   4.53929   4.80518
          Condensed to atoms (all electrons):
               1          2          3          4          5          6
     1  C    5.158239   0.461662  -0.096468   0.370635  -0.028047   0.339244
     2  C    0.461662   5.158239  -0.096468  -0.028047   0.370635  -0.031983
     3  O   -0.096468  -0.096468   8.316614   0.002372   0.002372   0.228675
     4  H    0.370635  -0.028047   0.002372   0.533174  -0.001958  -0.027669
     5  H   -0.028047   0.370635   0.002372  -0.001958   0.533174   0.004085
     6  C    0.339244  -0.031983   0.228675  -0.027669   0.004085   4.314150
     7  C   -0.031983   0.339244   0.228675   0.004085  -0.027669  -0.036963
     8  O   -0.068870   0.004309  -0.062900  -0.000134  -0.000040   0.605603
     9  O    0.004309  -0.068870  -0.062900  -0.000040  -0.000134  -0.000085
               7          8          9
     1  C   -0.031983  -0.068870   0.004309
     2  C    0.339244   0.004309  -0.068870
     3  O    0.228675  -0.062900  -0.062900
     4  H    0.004085  -0.000134  -0.000040
     5  H   -0.027669  -0.000040  -0.000134
     6  C   -0.036963   0.605603  -0.000085
     7  C    4.314150  -0.000085   0.605603
     8  O   -0.000085   7.935965  -0.000026
     9  O    0.605603  -0.000026   7.935965
 Mulliken charges:
               1
     1  C   -0.108721
     2  C   -0.108721
     3  O   -0.459971
     4  H    0.147583
     5  H    0.147583
     6  C    0.604944
     7  C    0.604944
     8  O   -0.413821
     9  O   -0.413821
 Sum of Mulliken charges =   0.00000
 Mulliken charges with hydrogens summed into heavy atoms:
               1
     1  C    0.038862
     2  C    0.038862
     3  O   -0.459971
     6  C    0.604944
     7  C    0.604944
     8  O   -0.413821
     9  O   -0.413821
 APT charges:
               1
     1  C   -0.087666
     2  C   -0.087666
     3  O   -0.784303
     4  H    0.088223
     5  H    0.088223
     6  C    1.035101
     7  C    1.035101
     8  O   -0.643506
     9  O   -0.643506
 Sum of APT charges =  -0.00000
 APT charges with hydrogens summed into heavy atoms:
               1
     1  C    0.000556
     2  C    0.000556
     3  O   -0.784303
     6  C    1.035101
     7  C    1.035101
     8  O   -0.643506
     9  O   -0.643506
 Electronic spatial extent (au):  <R**2>=            611.7149
 Charge=             -0.0000 electrons
 Dipole moment (field-independent basis, Debye):
    X=              0.0000    Y=             -0.0000    Z=             -4.0708  Tot=              4.0708
 Quadrupole moment (field-independent basis, Debye-Ang):
   XX=            -36.6920   YY=            -46.9708   ZZ=            -35.6186
   XY=             -0.0000   XZ=              0.0000   YZ=              0.0000
 Traceless Quadrupole moment (field-independent basis, Debye-Ang):
   XX=              3.0685   YY=             -7.2103   ZZ=              4.1419
   XY=             -0.0000   XZ=              0.0000   YZ=              0.0000
 Octapole moment (field-independent basis, Debye-Ang**2):
  XXX=              0.0000  YYY=              0.0000  ZZZ=             -4.4783  XYY=              0.0000
  XXY=             -0.0000  XXZ=              4.2802  XZZ=              0.0000  YZZ=              0.0000
  YYZ=            -11.1128  XYZ=             -0.0000
 Hexadecapole moment (field-independent basis, Debye-Ang**3):
 XXXX=            -31.0506 YYYY=           -547.9120 ZZZZ=           -199.2078 XXXY=             -0.0000
 XXXZ=              0.0000 YYYX=             -0.0000 YYYZ=             -0.0000 ZZZX=              0.0000
 ZZZY=             -0.0000 XXYY=            -80.9252 XXZZ=            -43.5807 YYZZ=           -108.4956
 XXYZ=             -0.0000 YYXZ=              0.0000 ZZXY=             -0.0000
 N-N= 2.743567978931D+02 E-N=-1.436269573805D+03  KE= 3.759902247819D+02
 Symmetry A1   KE= 2.141198060796D+02
 Symmetry A2   KE= 3.583432505895D+00
 Symmetry B1   KE= 1.061925618756D+01
 Symmetry B2   KE= 1.476677300088D+02
  Exact polarizability:  20.066   0.000  71.380  -0.000  -0.000  41.453
 Approx polarizability:  30.290   0.000 142.390  -0.000   0.000  60.243
 Calling FoFJK, ICntrl=    100127 FMM=F ISym2X=1 I1Cent= 0 IOpClX= 0 NMat=1 NMatS=1 NMatT=0.
 Full mass-weighted force constant matrix:
 Low frequencies ---   -0.0013   -0.0003   -0.0002    6.6493    8.5700   11.8115
 Low frequencies ---  168.2646  264.6706  400.0133
 Diagonal vibrational polarizability:
        5.4629340      11.2485084       5.5870993
 Harmonic frequencies (cm**-1), IR intensities (KM/Mole), Raman scattering
 activities (A**4/AMU), depolarization ratios for plane and unpolarized
 incident light, reduced masses (AMU), force constants (mDyne/A),
 and normal coordinates:
                           1         2         3         4         5
                          B1        A2        A1        B2        A1
       Frequencies ---   168.2643  264.6705  400.0133  558.4413  636.2829
    Reduced masses ---    15.4032    4.1626   12.9133    4.7535   10.6569
   Force constants ---     0.2569    0.1718    1.2174    0.8734    2.5420
    IR Intensities ---     3.0565    0.0000   10.5477    2.2711    0.4783
 Coord Atom Element:
   1     1     6          0.07959   0.31677   0.00000  -0.00000  -0.00000
   2     1     6          0.00000   0.00000   0.02047  -0.15506   0.03108
   3     1     6          0.00000   0.00000  -0.23597  -0.17172   0.03137
   1     2     6          0.07959  -0.31677  -0.00000  -0.00000  -0.00000
   2     2     6          0.00000  -0.00000  -0.02047  -0.15506  -0.03108
   3     2     6          0.00000   0.00000  -0.23597   0.17172   0.03137
   1     3     8          0.68679   0.00000   0.00000  -0.00000   0.00000
   2     3     8          0.00000   0.00000  -0.00000   0.13908  -0.00000
   3     3     8          0.00000   0.00000  -0.35301   0.00000  -0.25176
   1     4     1         -0.12110   0.60313   0.00000  -0.00000   0.00000
   2     4     1         -0.00000   0.00000  -0.03555  -0.43368  -0.28516
   3     4     1         -0.00000   0.00000  -0.28684  -0.40463  -0.23817
   1     5     1         -0.12110  -0.60313  -0.00000  -0.00000   0.00000
   2     5     1         -0.00000  -0.00000   0.03555  -0.43368   0.28516
   3     5     1          0.00000   0.00000  -0.28684   0.40463  -0.23817
   1     6     6          0.11273   0.12610   0.00000   0.00000  -0.00000
   2     6     6          0.00000  -0.00000  -0.01915   0.12694   0.38453
   3     6     6          0.00000   0.00000  -0.12579  -0.13237  -0.02044
   1     7     6          0.11273  -0.12610   0.00000   0.00000  -0.00000
   2     7     6         -0.00000   0.00000   0.01915   0.12694  -0.38453
   3     7     6         -0.00000   0.00000  -0.12579   0.13237  -0.02044
   1     8     8         -0.48005  -0.14138  -0.00000  -0.00000   0.00000
   2     8     8          0.00000   0.00000  -0.25442  -0.02112   0.40302
   3     8     8         -0.00000  -0.00000   0.46598   0.22564   0.13269
   1     9     8         -0.48005   0.14138  -0.00000  -0.00000   0.00000
   2     9     8         -0.00000  -0.00000   0.25442  -0.02112  -0.40302
   3     9     8         -0.00000  -0.00000   0.46598  -0.22564   0.13269
                           6         7         8         9        10
                          B1        B2        A2        B1        A1
       Frequencies ---   639.8349  702.4805  761.8635  852.9986  875.8064
    Reduced masses ---     2.4959    8.8185    8.3204    1.8617    9.4115
   Force constants ---     0.6020    2.5640    2.8454    0.7981    4.2533
    IR Intensities ---     0.8083   34.8022    0.0000   67.7185    5.9351
 Coord Atom Element:
   1     1     6          0.00839  -0.00000  -0.21508  -0.12296  -0.00000
   2     1     6          0.00000   0.34879   0.00000  -0.00000   0.01195
   3     1     6         -0.00000  -0.22212   0.00000   0.00000  -0.44362
   1     2     6          0.00839  -0.00000   0.21508  -0.12296  -0.00000
   2     2     6          0.00000   0.34879   0.00000  -0.00000  -0.01195
   3     2     6          0.00000   0.22212   0.00000   0.00000  -0.44362
   1     3     8         -0.14815   0.00000  -0.00000  -0.04719  -0.00000
   2     3     8         -0.00000  -0.10069   0.00000  -0.00000  -0.00000
   3     3     8         -0.00000   0.00000  -0.00000  -0.00000   0.48015
   1     4     1         -0.66138   0.00000  -0.41657   0.67971   0.00000
   2     4     1          0.00000   0.31989   0.00000  -0.00000   0.12032
   3     4     1         -0.00000  -0.24875   0.00000  -0.00000  -0.38739
   1     5     1         -0.66138   0.00000   0.41657   0.67971   0.00000
   2     5     1          0.00000   0.31989   0.00000  -0.00000  -0.12032
   3     5     1         -0.00000   0.24875   0.00000   0.00000  -0.38739
   1     6     6          0.22007  -0.00000   0.51309   0.14342   0.00000
   2     6     6          0.00000  -0.02610  -0.00000   0.00000   0.07186
   3     6     6         -0.00000  -0.33241  -0.00000   0.00000   0.06756
   1     7     6          0.22007  -0.00000  -0.51309   0.14342  -0.00000
   2     7     6         -0.00000  -0.02610  -0.00000   0.00000  -0.07186
   3     7     6          0.00000   0.33241   0.00000  -0.00000   0.06756
   1     8     8         -0.05565   0.00000  -0.13017  -0.03459  -0.00000
   2     8     8          0.00000  -0.21191  -0.00000   0.00000   0.09537
   3     8     8         -0.00000  -0.06044  -0.00000  -0.00000   0.06647
   1     9     8         -0.05565   0.00000   0.13017  -0.03459   0.00000
   2     9     8         -0.00000  -0.21191  -0.00000   0.00000  -0.09537
   3     9     8          0.00000   0.06044   0.00000   0.00000   0.06647
                          11        12        13        14        15
                          B2        A2        B2        A1        A1
       Frequencies ---   910.8290  978.2922 1062.3790 1081.8620 1276.1255
    Reduced masses ---     8.9518    1.2861    3.2345    1.1566    7.1450
   Force constants ---     4.3756    0.7252    2.1509    0.7976    6.8555
    IR Intensities ---   111.8452    0.0000   49.7470   20.8969  160.4295
 Coord Atom Element:
   1     1     6         -0.00000  -0.11250  -0.00000  -0.00000   0.00000
   2     1     6          0.01006  -0.00000   0.09031   0.03905  -0.04119
   3     1     6          0.12005   0.00000  -0.17155  -0.03813  -0.13306
   1     2     6         -0.00000   0.11250   0.00000   0.00000   0.00000
   2     2     6          0.01006   0.00000   0.09031  -0.03905   0.04119
   3     2     6         -0.12005  -0.00000   0.17155  -0.03813  -0.13306
   1     3     8         -0.00000  -0.00000  -0.00000   0.00000   0.00000
   2     3     8          0.61710   0.00000   0.06901  -0.00000   0.00000
   3     3     8          0.00000  -0.00000  -0.00000  -0.04987  -0.26676
   1     4     1          0.00000   0.69810   0.00000   0.00000  -0.00000
   2     4     1          0.29642  -0.00000  -0.33522   0.57776  -0.31464
   3     4     1          0.36711  -0.00000  -0.53625   0.40022  -0.37013
   1     5     1          0.00000  -0.69810  -0.00000  -0.00000   0.00000
   2     5     1          0.29642   0.00000  -0.33522  -0.57776   0.31464
   3     5     1         -0.36711  -0.00000   0.53625   0.40022  -0.37013
   1     6     6          0.00000  -0.00007  -0.00000  -0.00000  -0.00000
   2     6     6         -0.17793   0.00000  -0.11368  -0.00498  -0.16637
   3     6     6         -0.01130  -0.00000   0.21496   0.03095   0.41861
   1     7     6          0.00000   0.00007  -0.00000   0.00000  -0.00000
   2     7     6         -0.17793   0.00000  -0.11368   0.00498   0.16637
   3     7     6          0.01130   0.00000  -0.21496   0.03095   0.41861
   1     8     8         -0.00000  -0.00151   0.00000   0.00000  -0.00000
   2     8     8         -0.20128  -0.00000   0.00415   0.02811   0.05299
   3     8     8          0.01221   0.00000  -0.03087   0.00510  -0.05753
   1     9     8         -0.00000   0.00151   0.00000  -0.00000  -0.00000
   2     9     8         -0.20128   0.00000   0.00415  -0.02811  -0.05299
   3     9     8         -0.01221  -0.00000   0.03087   0.00510  -0.05753
                          16        17        18        19        20
                          B2        A1        B2        A1        B2
       Frequencies ---  1337.3539 1663.8809 1866.5496 1928.4944 3256.7837
    Reduced masses ---     1.7792    6.6301   12.8720   12.6140    1.0896
   Force constants ---     1.8749   10.8147   26.4226   27.6401    6.8091
    IR Intensities ---     2.7304    2.8922  556.4889   57.0095    0.3488
 Coord Atom Element:
   1     1     6         -0.00000  -0.00000   0.00000   0.00000  -0.00000
   2     1     6         -0.06758   0.50019  -0.04721  -0.04013   0.03766
   3     1     6         -0.16545   0.04442  -0.03082  -0.02931  -0.04794
   1     2     6         -0.00000   0.00000   0.00000  -0.00000  -0.00000
   2     2     6         -0.06758  -0.50019  -0.04721   0.04013   0.03766
   3     2     6          0.16545   0.04442   0.03082  -0.02931   0.04794
   1     3     8         -0.00000  -0.00000  -0.00000  -0.00000  -0.00000
   2     3     8         -0.00080   0.00000   0.00201   0.00000  -0.00042
   3     3     8          0.00000   0.00902   0.00000  -0.03552   0.00000
   1     4     1          0.00000  -0.00000  -0.00000   0.00000  -0.00000
   2     4     1          0.57988  -0.00717   0.09729   0.11916  -0.44805
   3     4     1          0.35915  -0.49491   0.06964   0.07296   0.54363
   1     5     1          0.00000   0.00000  -0.00000  -0.00000   0.00000
   2     5     1          0.57988   0.00717   0.09729  -0.11916  -0.44805
   3     5     1         -0.35915  -0.49491  -0.06964   0.07296  -0.54363
   1     6     6          0.00000   0.00000   0.00000  -0.00000   0.00000
   2     6     6         -0.01942  -0.00421   0.50995   0.54230   0.00049
   3     6     6          0.03854   0.02884   0.27190   0.23099   0.00144
   1     7     6          0.00000  -0.00000  -0.00000   0.00000   0.00000
   2     7     6         -0.01942   0.00421   0.50995  -0.54230   0.00049
   3     7     6         -0.03854   0.02884  -0.27190   0.23099  -0.00144
   1     8     8         -0.00000  -0.00000  -0.00000  -0.00000  -0.00000
   2     8     8          0.02913  -0.03403  -0.35430  -0.33294  -0.00018
   3     8     8          0.00963  -0.02829  -0.15163  -0.13815  -0.00026
   1     9     8         -0.00000   0.00000  -0.00000  -0.00000  -0.00000
   2     9     8          0.02913   0.03403  -0.35430   0.33294  -0.00018
   3     9     8         -0.00963  -0.02829   0.15163  -0.13815   0.00026
                          21
                          A1
       Frequencies ---  3276.9972
    Reduced masses ---     1.1094
   Force constants ---     7.0194
    IR Intensities ---     0.3528
 Coord Atom Element:
   1     1     6          0.00000
   2     1     6          0.04838
   3     1     6         -0.04766
   1     2     6         -0.00000
   2     2     6         -0.04838
   3     2     6         -0.04766
   1     3     8         -0.00000
   2     3     8          0.00000
   3     3     8          0.00083
   1     4     1          0.00000
   2     4     1         -0.45091
   3     4     1          0.54043
   1     5     1         -0.00000
   2     5     1          0.45091
   3     5     1          0.54043
   1     6     6         -0.00000
   2     6     6          0.00160
   3     6     6          0.00230
   1     7     6          0.00000
   2     7     6         -0.00160
   3     7     6          0.00230
   1     8     8          0.00000
   2     8     8         -0.00065
   3     8     8         -0.00043
   1     9     8         -0.00000
   2     9     8          0.00065
   3     9     8         -0.00043
 Harmonic frequencies (cm**-1), IR intensities (KM/Mole), Raman scattering
 activities (A**4/AMU), depolarization ratios for plane and unpolarized
 incident light, reduced masses (AMU), force constants (mDyne/A),
 and normal coordinates:
                      1                      2                      3
                     B1                     A2                     A1
 Frequencies --    168.2643               264.6705               400.0133
 Red. masses --     15.4032                 4.1626                12.9133
 Frc consts  --      0.2569                 0.1718                 1.2174
 IR Inten    --      3.0565                 0.0000                10.5477
  Atom  AN      X      Y      Z        X      Y      Z        X      Y      Z
     1   6     0.08   0.00   0.00     0.32   0.00   0.00     0.00   0.02  -0.24
     2   6     0.08   0.00   0.00    -0.32  -0.00   0.00    -0.00  -0.02  -0.24
     3   8     0.69   0.00   0.00     0.00   0.00   0.00     0.00  -0.00  -0.35
     4   1    -0.12  -0.00  -0.00     0.60   0.00   0.00     0.00  -0.04  -0.29
     5   1    -0.12  -0.00   0.00    -0.60  -0.00   0.00    -0.00   0.04  -0.29
     6   6     0.11   0.00   0.00     0.13  -0.00   0.00     0.00  -0.02  -0.13
     7   6     0.11  -0.00  -0.00    -0.13   0.00   0.00     0.00   0.02  -0.13
     8   8    -0.48   0.00  -0.00    -0.14   0.00  -0.00    -0.00  -0.25   0.47
     9   8    -0.48  -0.00  -0.00     0.14  -0.00  -0.00    -0.00   0.25   0.47
                      4                      5                      6
                     B2                     A1                     B1
 Frequencies --    558.4413               636.2829               639.8349
 Red. masses --      4.7535                10.6569                 2.4959
 Frc consts  --      0.8734                 2.5420                 0.6020
 IR Inten    --      2.2711                 0.4783                 0.8083
  Atom  AN      X      Y      Z        X      Y      Z        X      Y      Z
     1   6    -0.00  -0.16  -0.17    -0.00   0.03   0.03     0.01   0.00  -0.00
     2   6    -0.00  -0.16   0.17    -0.00  -0.03   0.03     0.01   0.00   0.00
     3   8    -0.00   0.14   0.00     0.00  -0.00  -0.25    -0.15  -0.00  -0.00
     4   1    -0.00  -0.43  -0.40     0.00  -0.29  -0.24    -0.66   0.00  -0.00
     5   1    -0.00  -0.43   0.40     0.00   0.29  -0.24    -0.66   0.00  -0.00
     6   6     0.00   0.13  -0.13    -0.00   0.38  -0.02     0.22   0.00  -0.00
     7   6     0.00   0.13   0.13    -0.00  -0.38  -0.02     0.22  -0.00   0.00
     8   8    -0.00  -0.02   0.23     0.00   0.40   0.13    -0.06   0.00  -0.00
     9   8    -0.00  -0.02  -0.23     0.00  -0.40   0.13    -0.06  -0.00   0.00
                      7                      8                      9
                     B2                     A2                     B1
 Frequencies --    702.4805               761.8635               852.9986
 Red. masses --      8.8185                 8.3204                 1.8617
 Frc consts  --      2.5640                 2.8454                 0.7981
 IR Inten    --     34.8022                 0.0000                67.7185
  Atom  AN      X      Y      Z        X      Y      Z        X      Y      Z
     1   6    -0.00   0.35  -0.22    -0.22   0.00   0.00    -0.12  -0.00   0.00
     2   6    -0.00   0.35   0.22     0.22   0.00   0.00    -0.12  -0.00   0.00
     3   8     0.00  -0.10   0.00    -0.00   0.00  -0.00    -0.05  -0.00  -0.00
     4   1     0.00   0.32  -0.25    -0.42   0.00   0.00     0.68  -0.00  -0.00
     5   1     0.00   0.32   0.25     0.42   0.00   0.00     0.68  -0.00   0.00
     6   6    -0.00  -0.03  -0.33     0.51  -0.00  -0.00     0.14   0.00   0.00
     7   6    -0.00  -0.03   0.33    -0.51  -0.00   0.00     0.14   0.00  -0.00
     8   8     0.00  -0.21  -0.06    -0.13  -0.00  -0.00    -0.03   0.00  -0.00
     9   8     0.00  -0.21   0.06     0.13  -0.00   0.00    -0.03   0.00   0.00
                     10                     11                     12
                     A1                     B2                     A2
 Frequencies --    875.8064               910.8290               978.2922
 Red. masses --      9.4115                 8.9518                 1.2861
 Frc consts  --      4.2533                 4.3756                 0.7252
 IR Inten    --      5.9351               111.8452                 0.0000
  Atom  AN      X      Y      Z        X      Y      Z        X      Y      Z
     1   6    -0.00   0.01  -0.44    -0.00   0.01   0.12    -0.11  -0.00   0.00
     2   6    -0.00  -0.01  -0.44    -0.00   0.01  -0.12     0.11   0.00  -0.00
     3   8    -0.00  -0.00   0.48    -0.00   0.62   0.00    -0.00   0.00  -0.00
     4   1     0.00   0.12  -0.39     0.00   0.30   0.37     0.70  -0.00  -0.00
     5   1     0.00  -0.12  -0.39     0.00   0.30  -0.37    -0.70   0.00  -0.00
     6   6     0.00   0.07   0.07     0.00  -0.18  -0.01    -0.00   0.00  -0.00
     7   6    -0.00  -0.07   0.07     0.00  -0.18   0.01     0.00   0.00   0.00
     8   8    -0.00   0.10   0.07    -0.00  -0.20   0.01    -0.00  -0.00   0.00
     9   8     0.00  -0.10   0.07    -0.00  -0.20  -0.01     0.00   0.00  -0.00
                     13                     14                     15
                     B2                     A1                     A1
 Frequencies --   1062.3790              1081.8620              1276.1255
 Red. masses --      3.2345                 1.1566                 7.1450
 Frc consts  --      2.1509                 0.7976                 6.8555
 IR Inten    --     49.7470                20.8969               160.4295
  Atom  AN      X      Y      Z        X      Y      Z        X      Y      Z
     1   6    -0.00   0.09  -0.17    -0.00   0.04  -0.04     0.00  -0.04  -0.13
     2   6     0.00   0.09   0.17     0.00  -0.04  -0.04     0.00   0.04  -0.13
     3   8    -0.00   0.07  -0.00     0.00  -0.00  -0.05     0.00   0.00  -0.27
     4   1     0.00  -0.34  -0.54     0.00   0.58   0.40    -0.00  -0.31  -0.37
     5   1    -0.00  -0.34   0.54    -0.00  -0.58   0.40     0.00   0.31  -0.37
     6   6    -0.00  -0.11   0.21    -0.00  -0.00   0.03    -0.00  -0.17   0.42
     7   6    -0.00  -0.11  -0.21     0.00   0.00   0.03    -0.00   0.17   0.42
     8   8     0.00   0.00  -0.03     0.00   0.03   0.01    -0.00   0.05  -0.06
     9   8     0.00   0.00   0.03    -0.00  -0.03   0.01    -0.00  -0.05  -0.06
                     16                     17                     18
                     B2                     A1                     B2
 Frequencies --   1337.3539              1663.8809              1866.5496
 Red. masses --      1.7792                 6.6301                12.8720
 Frc consts  --      1.8749                10.8147                26.4226
 IR Inten    --      2.7304                 2.8922               556.4889
  Atom  AN      X      Y      Z        X      Y      Z        X      Y      Z
     1   6    -0.00  -0.07  -0.17    -0.00   0.50   0.04     0.00  -0.05  -0.03
     2   6    -0.00  -0.07   0.17     0.00  -0.50   0.04     0.00  -0.05   0.03
     3   8    -0.00  -0.00   0.00    -0.00   0.00   0.01    -0.00   0.00   0.00
     4   1     0.00   0.58   0.36    -0.00  -0.01  -0.49    -0.00   0.10   0.07
     5   1     0.00   0.58  -0.36     0.00   0.01  -0.49    -0.00   0.10  -0.07
     6   6     0.00  -0.02   0.04     0.00  -0.00   0.03     0.00   0.51   0.27
     7   6     0.00  -0.02  -0.04    -0.00   0.00   0.03    -0.00   0.51  -0.27
     8   8    -0.00   0.03   0.01    -0.00  -0.03  -0.03    -0.00  -0.35  -0.15
     9   8    -0.00   0.03  -0.01     0.00   0.03  -0.03    -0.00  -0.35   0.15
                     19                     20                     21
                     A1                     B2                     A1
 Frequencies --   1928.4944              3256.7837              3276.9972
 Red. masses --     12.6140                 1.0896                 1.1094
 Frc consts  --     27.6401                 6.8091                 7.0194
 IR Inten    --     57.0095                 0.3488                 0.3528
  Atom  AN      X      Y      Z        X      Y      Z        X      Y      Z
     1   6     0.00  -0.04  -0.03    -0.00   0.04  -0.05     0.00   0.05  -0.05
     2   6    -0.00   0.04  -0.03    -0.00   0.04   0.05    -0.00  -0.05  -0.05
     3   8    -0.00   0.00  -0.04    -0.00  -0.00   0.00    -0.00   0.00   0.00
     4   1     0.00   0.12   0.07    -0.00  -0.45   0.54     0.00  -0.45   0.54
     5   1    -0.00  -0.12   0.07     0.00  -0.45  -0.54    -0.00   0.45   0.54
     6   6    -0.00   0.54   0.23     0.00   0.00   0.00    -0.00   0.00   0.00
     7   6     0.00  -0.54   0.23     0.00   0.00  -0.00     0.00  -0.00   0.00
     8   8    -0.00  -0.33  -0.14    -0.00  -0.00  -0.00     0.00  -0.00  -0.00
     9   8    -0.00   0.33  -0.14    -0.00  -0.00   0.00    -0.00   0.00  -0.00

 -------------------
 - Thermochemistry -
 -------------------
 Temperature   298.150 Kelvin.  Pressure   1.00000 Atm.
 Atom     1 has atomic number  6 and mass  12.00000
 Atom     2 has atomic number  6 and mass  12.00000
 Atom     3 has atomic number  8 and mass  15.99491
 Atom     4 has atomic number  1 and mass   1.00783
 Atom     5 has atomic number  1 and mass   1.00783
 Atom     6 has atomic number  6 and mass  12.00000
 Atom     7 has atomic number  6 and mass  12.00000
 Atom     8 has atomic number  8 and mass  15.99491
 Atom     9 has atomic number  8 and mass  15.99491
 Molecular mass:    98.00039 amu.
 Principal axes and moments of inertia in atomic units:
                           1         2         3
     Eigenvalues --   263.79451 737.384261001.17878
           X            0.00000   0.00000   1.00000
           Y            1.00000   0.00000  -0.00000
           Z           -0.00000   1.00000  -0.00000
 This molecule is an asymmetric top.
 Rotational symmetry number  2.
 Rotational temperatures (Kelvin)      0.32834     0.11746     0.08651
 Rotational constants (GHZ):           6.84147     2.44749     1.80262
 Zero-point vibrational energy     146543.8 (Joules/Mol)
                                   35.02480 (Kcal/Mol)
 Warning -- explicit consideration of   4 degrees of freedom as
           vibrations may cause significant error
 Vibrational temperatures:    242.09   380.80   575.53   803.47   915.47
          (Kelvin)            920.58  1010.71  1096.15  1227.27  1260.09
                             1310.48  1407.54  1528.53  1556.56  1836.06
                             1924.15  2393.95  2685.55  2774.67  4685.79
                             4714.87
 
 Zero-point correction=                           0.055816 (Hartree/Particle)
 Thermal correction to Energy=                    0.061000
 Thermal correction to Enthalpy=                  0.061944
 Thermal correction to Gibbs Free Energy=         0.027399
 Sum of electronic and zero-point Energies=           -379.236906
 Sum of electronic and thermal Energies=              -379.231722
 Sum of electronic and thermal Enthalpies=            -379.230778
 Sum of electronic and thermal Free Energies=         -379.265323
 
                     E (Thermal)             CV                S
                      KCal/Mol        Cal/Mol-Kelvin    Cal/Mol-Kelvin
 Total                   38.278             18.583             72.706
 Electronic               0.000              0.000              0.000
 Translational            0.889              2.981             39.658
 Rotational               0.889              2.981             25.391
 Vibrational             36.500             12.621              7.657
 Vibration     1          0.625              1.882              2.455
 Vibration     2          0.671              1.738              1.631
 Vibration     3          0.766              1.470              0.963
 Vibration     4          0.914              1.121              0.527
                       Q            Log10(Q)             Ln(Q)
 Total Bot       0.249644D-12        -12.602678        -29.018739
 Total V=0       0.117674D+14         13.070679         30.096350
 Vib (Bot)       0.828848D-25        -25.081525        -57.752346
 Vib (Bot)    1  0.119835D+01          0.078583          0.180945
 Vib (Bot)    2  0.732164D+00         -0.135392         -0.311751
 Vib (Bot)    3  0.445571D+00         -0.351083         -0.808398
 Vib (Bot)    4  0.278737D+00         -0.554806         -1.277488
 Vib (V=0)       0.390690D+01          0.591832          1.362744
 Vib (V=0)    1  0.179848D+01          0.254905          0.586940
 Vib (V=0)    2  0.138660D+01          0.141952          0.326856
 Vib (V=0)    3  0.116973D+01          0.068084          0.156770
 Vib (V=0)    4  0.107245D+01          0.030375          0.069942
 Electronic      0.100000D+01          0.000000          0.000000
 Translational   0.381325D+08          7.581296         17.456578
 Rotational      0.789862D+05          4.897551         11.277028
                           ----------------------------
                           ! Normal Mode     1        !
 --------------------------                            --------------------------
 ! Name  Definition              Value          Relative Weight (%)             !
 --------------------------------------------------------------------------------
 ! R1    R(1,2)                  0.0                     0.0                    !
 ! R2    R(1,4)                  0.0                     0.0                    !
 ! R3    R(1,6)                  0.0                     0.0                    !
 ! R4    R(2,5)                  0.0                     0.0                    !
 ! R5    R(2,7)                  0.0                     0.0                    !
 ! R6    R(3,6)                  0.0                     0.0                    !
 ! R7    R(3,7)                  0.0                     0.0                    !
 ! R8    R(6,8)                  0.0                     0.0                    !
 ! R9    R(7,9)                  0.0                     0.0                    !
 ! A1    A(2,1,4)                0.0                     0.0                    !
 ! A2    A(2,1,6)                0.0                     0.0                    !
 ! A3    A(4,1,6)                0.0                     0.0                    !
 ! A4    A(1,2,5)                0.0                     0.0                    !
 ! A5    A(1,2,7)                0.0                     0.0                    !
 ! A6    A(5,2,7)                0.0                     0.0                    !
 ! A7    A(6,3,7)                0.0                     0.0                    !
 ! A8    A(1,6,3)                0.0                     0.0                    !
 ! A9    A(1,6,8)                0.0                     0.0                    !
 ! A10   A(3,6,8)                0.0                     0.0                    !
 ! A11   A(2,7,3)                0.0                     0.0                    !
 ! A12   A(2,7,9)                0.0                     0.0                    !
 ! A13   A(3,7,9)                0.0                     0.0                    !
 ! D1    D(4,1,2,5)              0.0                     0.0                    !
 ! D2    D(4,1,2,7)              0.1154                  3.1                    !
 ! D3    D(6,1,2,5)             -0.1154                  3.1                    !
 ! D4    D(6,1,2,7)              0.0                     0.0                    !
 ! D5    D(2,1,6,3)              0.221                   5.9                    !
 ! D6    D(2,1,6,8)              0.3465                  9.2                    !
 ! D7    D(4,1,6,3)              0.1164                  3.1                    !
 ! D8    D(4,1,6,8)              0.2418                  6.4                    !
 ! D9    D(1,2,7,3)             -0.221                   5.9                    !
 ! D10   D(1,2,7,9)             -0.3465                  9.2                    !
 ! D11   D(5,2,7,3)             -0.1164                  3.1                    !
 ! D12   D(5,2,7,9)             -0.2418                  6.4                    !
 ! D13   D(7,3,6,1)             -0.36                    9.6                    !
 ! D14   D(7,3,6,8)             -0.4747                 12.7                    !
 ! D15   D(6,3,7,2)              0.36                    9.6                    !
 ! D16   D(6,3,7,9)              0.4747                 12.7                    !
 --------------------------------------------------------------------------------
                           ----------------------------
                           ! Normal Mode     2        !
 --------------------------                            --------------------------
 ! Name  Definition              Value          Relative Weight (%)             !
 --------------------------------------------------------------------------------
 ! R1    R(1,2)                  0.0                     0.0                    !
 ! R2    R(1,4)                  0.0                     0.0                    !
 ! R3    R(1,6)                  0.0                     0.0                    !
 ! R4    R(2,5)                  0.0                     0.0                    !
 ! R5    R(2,7)                  0.0                     0.0                    !
 ! R6    R(3,6)                  0.0                     0.0                    !
 ! R7    R(3,7)                  0.0                     0.0                    !
 ! R8    R(6,8)                  0.0                     0.0                    !
 ! R9    R(7,9)                  0.0                     0.0                    !
 ! A1    A(2,1,4)                0.0                     0.0                    !
 ! A2    A(2,1,6)                0.0                     0.0                    !
 ! A3    A(4,1,6)                0.0                     0.0                    !
 ! A4    A(1,2,5)                0.0                     0.0                    !
 ! A5    A(1,2,7)                0.0                     0.0                    !
 ! A6    A(5,2,7)                0.0                     0.0                    !
 ! A7    A(6,3,7)                0.0                     0.0                    !
 ! A8    A(1,6,3)                0.0                     0.0                    !
 ! A9    A(1,6,8)                0.0                     0.0                    !
 ! A10   A(3,6,8)                0.0                     0.0                    !
 ! A11   A(2,7,3)                0.0                     0.0                    !
 ! A12   A(2,7,9)                0.0                     0.0                    !
 ! A13   A(3,7,9)                0.0                     0.0                    !
 ! D1    D(4,1,2,5)              0.0533                  1.7                    !
 ! D2    D(4,1,2,7)             -0.1268                  4.1                    !
 ! D3    D(6,1,2,5)             -0.1268                  4.1                    !
 ! D4    D(6,1,2,7)             -0.3068                  9.8                    !
 ! D5    D(2,1,6,3)              0.2575                  8.3                    !
 ! D6    D(2,1,6,8)              0.3837                 12.3                    !
 ! D7    D(4,1,6,3)              0.0941                  3.0                    !
 ! D8    D(4,1,6,8)              0.2204                  7.1                    !
 ! D9    D(1,2,7,3)              0.2575                  8.3                    !
 ! D10   D(1,2,7,9)              0.3837                 12.3                    !
 ! D11   D(5,2,7,3)              0.0941                  3.0                    !
 ! D12   D(5,2,7,9)              0.2204                  7.1                    !
 ! D13   D(7,3,6,1)             -0.0902                  2.9                    !
 ! D14   D(7,3,6,8)             -0.2056                  6.6                    !
 ! D15   D(6,3,7,2)             -0.0902                  2.9                    !
 ! D16   D(6,3,7,9)             -0.2056                  6.6                    !
 --------------------------------------------------------------------------------
                           ----------------------------
                           ! Normal Mode     3        !
 --------------------------                            --------------------------
 ! Name  Definition              Value          Relative Weight (%)             !
 --------------------------------------------------------------------------------
 ! R1    R(1,2)                  0.0409                  2.1                    !
 ! R2    R(1,4)                  0.0033                  0.2                    !
 ! R3    R(1,6)                  0.0924                  4.8                    !
 ! R4    R(2,5)                  0.0033                  0.2                    !
 ! R5    R(2,7)                  0.0924                  4.8                    !
 ! R6    R(3,6)                 -0.1481                  7.7                    !
 ! R7    R(3,7)                 -0.1481                  7.7                    !
 ! R8    R(6,8)                 -0.0008                  0.0                    !
 ! R9    R(7,9)                 -0.0008                  0.0                    !
 ! A1    A(2,1,4)               -0.037                   1.9                    !
 ! A2    A(2,1,6)               -0.0255                  1.3                    !
 ! A3    A(4,1,6)                0.0625                  3.2                    !
 ! A4    A(1,2,5)               -0.037                   1.9                    !
 ! A5    A(1,2,7)               -0.0255                  1.3                    !
 ! A6    A(5,2,7)                0.0625                  3.2                    !
 ! A7    A(6,3,7)                0.1316                  6.8                    !
 ! A8    A(1,6,3)               -0.0403                  2.1                    !
 ! A9    A(1,6,8)                0.2558                 13.2                    !
 ! A10   A(3,6,8)               -0.2155                 11.1                    !
 ! A11   A(2,7,3)               -0.0403                  2.1                    !
 ! A12   A(2,7,9)                0.2558                 13.2                    !
 ! A13   A(3,7,9)               -0.2155                 11.1                    !
 ! D1    D(4,1,2,5)              0.0                     0.0                    !
 ! D2    D(4,1,2,7)              0.0                     0.0                    !
 ! D3    D(6,1,2,5)              0.0                     0.0                    !
 ! D4    D(6,1,2,7)              0.0                     0.0                    !
 ! D5    D(2,1,6,3)              0.0                     0.0                    !
 ! D6    D(2,1,6,8)              0.0                     0.0                    !
 ! D7    D(4,1,6,3)              0.0                     0.0                    !
 ! D8    D(4,1,6,8)              0.0                     0.0                    !
 ! D9    D(1,2,7,3)              0.0                     0.0                    !
 ! D10   D(1,2,7,9)              0.0                     0.0                    !
 ! D11   D(5,2,7,3)              0.0                     0.0                    !
 ! D12   D(5,2,7,9)              0.0                     0.0                    !
 ! D13   D(7,3,6,1)              0.0                     0.0                    !
 ! D14   D(7,3,6,8)              0.0                     0.0                    !
 ! D15   D(6,3,7,2)              0.0                     0.0                    !
 ! D16   D(6,3,7,9)              0.0                     0.0                    !
 --------------------------------------------------------------------------------
                           ----------------------------
                           ! Normal Mode     4        !
 --------------------------                            --------------------------
 ! Name  Definition              Value          Relative Weight (%)             !
 --------------------------------------------------------------------------------
 ! R1    R(1,2)                  0.0                     0.0                    !
 ! R2    R(1,4)                  0.0008                  0.0                    !
 ! R3    R(1,6)                  0.1252                  7.0                    !
 ! R4    R(2,5)                 -0.0008                  0.0                    !
 ! R5    R(2,7)                 -0.1252                  7.0                    !
 ! R6    R(3,6)                  0.0674                  3.8                    !
 ! R7    R(3,7)                 -0.0674                  3.8                    !
 ! R8    R(6,8)                 -0.0058                  0.3                    !
 ! R9    R(7,9)                  0.0058                  0.3                    !
 ! A1    A(2,1,4)               -0.0416                  2.3                    !
 ! A2    A(2,1,6)               -0.0453                  2.5                    !
 ! A3    A(4,1,6)                0.0869                  4.8                    !
 ! A4    A(1,2,5)                0.0416                  2.3                    !
 ! A5    A(1,2,7)                0.0453                  2.5                    !
 ! A6    A(5,2,7)               -0.0869                  4.8                    !
 ! A7    A(6,3,7)                0.0                     0.0                    !
 ! A8    A(1,6,3)               -0.0472                  2.6                    !
 ! A9    A(1,6,8)                0.2619                 14.6                    !
 ! A10   A(3,6,8)               -0.2146                 12.0                    !
 ! A11   A(2,7,3)                0.0472                  2.6                    !
 ! A12   A(2,7,9)               -0.2619                 14.6                    !
 ! A13   A(3,7,9)                0.2146                 12.0                    !
 ! D1    D(4,1,2,5)              0.0                     0.0                    !
 ! D2    D(4,1,2,7)              0.0                     0.0                    !
 ! D3    D(6,1,2,5)              0.0                     0.0                    !
 ! D4    D(6,1,2,7)              0.0                     0.0                    !
 ! D5    D(2,1,6,3)              0.0                     0.0                    !
 ! D6    D(2,1,6,8)              0.0                     0.0                    !
 ! D7    D(4,1,6,3)              0.0                     0.0                    !
 ! D8    D(4,1,6,8)              0.0                     0.0                    !
 ! D9    D(1,2,7,3)              0.0                     0.0                    !
 ! D10   D(1,2,7,9)              0.0                     0.0                    !
 ! D11   D(5,2,7,3)              0.0                     0.0                    !
 ! D12   D(5,2,7,9)              0.0                     0.0                    !
 ! D13   D(7,3,6,1)              0.0                     0.0                    !
 ! D14   D(7,3,6,8)              0.0                     0.0                    !
 ! D15   D(6,3,7,2)              0.0                     0.0                    !
 ! D16   D(6,3,7,9)              0.0                     0.0                    !
 --------------------------------------------------------------------------------
                           ----------------------------
                           ! Normal Mode     5        !
 --------------------------                            --------------------------
 ! Name  Definition              Value          Relative Weight (%)             !
 --------------------------------------------------------------------------------
 ! R1    R(1,2)                  0.0622                  2.1                    !
 ! R2    R(1,4)                  0.0049                  0.2                    !
 ! R3    R(1,6)                  0.0608                  2.1                    !
 ! R4    R(2,5)                  0.0049                  0.2                    !
 ! R5    R(2,7)                  0.0608                  2.1                    !
 ! R6    R(3,6)                  0.1773                  6.0                    !
 ! R7    R(3,7)                  0.1773                  6.0                    !
 ! R8    R(6,8)                  0.0736                  2.5                    !
 ! R9    R(7,9)                  0.0736                  2.5                    !
 ! A1    A(2,1,4)               -0.2033                  6.9                    !
 ! A2    A(2,1,6)                0.1249                  4.2                    !
 ! A3    A(4,1,6)                0.0784                  2.7                    !
 ! A4    A(1,2,5)               -0.2033                  6.9                    !
 ! A5    A(1,2,7)                0.1249                  4.2                    !
 ! A6    A(5,2,7)                0.0784                  2.7                    !
 ! A7    A(6,3,7)                0.313                  10.6                    !
 ! A8    A(1,6,3)               -0.2814                  9.5                    !
 ! A9    A(1,6,8)                0.1848                  6.3                    !
 ! A10   A(3,6,8)                0.0966                  3.3                    !
 ! A11   A(2,7,3)               -0.2814                  9.5                    !
 ! A12   A(2,7,9)                0.1848                  6.3                    !
 ! A13   A(3,7,9)                0.0966                  3.3                    !
 ! D1    D(4,1,2,5)              0.0                     0.0                    !
 ! D2    D(4,1,2,7)              0.0                     0.0                    !
 ! D3    D(6,1,2,5)              0.0                     0.0                    !
 ! D4    D(6,1,2,7)              0.0                     0.0                    !
 ! D5    D(2,1,6,3)              0.0                     0.0                    !
 ! D6    D(2,1,6,8)              0.0                     0.0                    !
 ! D7    D(4,1,6,3)              0.0                     0.0                    !
 ! D8    D(4,1,6,8)              0.0                     0.0                    !
 ! D9    D(1,2,7,3)              0.0                     0.0                    !
 ! D10   D(1,2,7,9)              0.0                     0.0                    !
 ! D11   D(5,2,7,3)              0.0                     0.0                    !
 ! D12   D(5,2,7,9)              0.0                     0.0                    !
 ! D13   D(7,3,6,1)              0.0                     0.0                    !
 ! D14   D(7,3,6,8)              0.0                     0.0                    !
 ! D15   D(6,3,7,2)              0.0                     0.0                    !
 ! D16   D(6,3,7,9)              0.0                     0.0                    !
 --------------------------------------------------------------------------------
                           ----------------------------
                           ! Normal Mode     6        !
 --------------------------                            --------------------------
 ! Name  Definition              Value          Relative Weight (%)             !
 --------------------------------------------------------------------------------
 ! R1    R(1,2)                  0.0                     0.0                    !
 ! R2    R(1,4)                  0.0                     0.0                    !
 ! R3    R(1,6)                  0.0                     0.0                    !
 ! R4    R(2,5)                  0.0                     0.0                    !
 ! R5    R(2,7)                  0.0                     0.0                    !
 ! R6    R(3,6)                  0.0                     0.0                    !
 ! R7    R(3,7)                  0.0                     0.0                    !
 ! R8    R(6,8)                  0.0                     0.0                    !
 ! R9    R(7,9)                  0.0                     0.0                    !
 ! A1    A(2,1,4)                0.0                     0.0                    !
 ! A2    A(2,1,6)                0.0                     0.0                    !
 ! A3    A(4,1,6)                0.0                     0.0                    !
 ! A4    A(1,2,5)                0.0                     0.0                    !
 ! A5    A(1,2,7)                0.0                     0.0                    !
 ! A6    A(5,2,7)                0.0                     0.0                    !
 ! A7    A(6,3,7)                0.0                     0.0                    !
 ! A8    A(1,6,3)                0.0                     0.0                    !
 ! A9    A(1,6,8)                0.0                     0.0                    !
 ! A10   A(3,6,8)                0.0                     0.0                    !
 ! A11   A(2,7,3)                0.0                     0.0                    !
 ! A12   A(2,7,9)                0.0                     0.0                    !
 ! A13   A(3,7,9)                0.0                     0.0                    !
[...]
     12   0.000000D+00  0.000000D+00  0.000000D+00  0.000000D+00  0.000000D+00
                26            27            28            29            30 
      1   0.373365D+00 -0.416907D+00 -0.416907D+00  0.577535D+00  0.577535D+00
      2   0.000000D+00  0.000000D+00  0.000000D+00  0.000000D+00  0.000000D+00
      3   0.000000D+00  0.000000D+00  0.000000D+00  0.000000D+00  0.000000D+00
      4  -0.632869D+00  0.645382D+00  0.238081D+00 -0.687811D+00 -0.109511D+01
      5   0.000000D+00  0.000000D+00  0.000000D+00  0.000000D+00  0.000000D+00
      6   0.000000D+00  0.000000D+00  0.000000D+00  0.000000D+00  0.000000D+00
      7   0.632869D+00 -0.626704D+00  0.753408D+00 -0.287954D+00  0.109216D+01
      8   0.000000D+00  0.000000D+00  0.000000D+00  0.000000D+00  0.000000D+00
      9   0.000000D+00  0.000000D+00  0.000000D+00  0.000000D+00  0.000000D+00
     10  -0.373365D+00  0.398230D+00 -0.574582D+00  0.398230D+00 -0.574582D+00
     11   0.000000D+00  0.000000D+00  0.000000D+00  0.000000D+00  0.000000D+00
     12   0.000000D+00  0.000000D+00  0.000000D+00  0.000000D+00  0.000000D+00
                31            32            33            34            35 
      1   0.416907D+00  0.416907D+00 -0.577535D+00 -0.577535D+00  0.400640D+00
      2   0.000000D+00  0.000000D+00  0.000000D+00  0.000000D+00  0.000000D+00
      3   0.000000D+00  0.000000D+00  0.000000D+00  0.000000D+00  0.000000D+00
      4  -0.645382D+00 -0.238081D+00  0.687811D+00  0.109511D+01 -0.648678D+00
      5   0.000000D+00  0.000000D+00  0.000000D+00  0.000000D+00  0.000000D+00
      6   0.000000D+00  0.000000D+00  0.000000D+00  0.000000D+00  0.000000D+00
      7   0.626704D+00 -0.753408D+00  0.287954D+00 -0.109216D+01  0.620200D+00
      8   0.000000D+00  0.000000D+00  0.000000D+00  0.000000D+00  0.000000D+00
      9   0.000000D+00  0.000000D+00  0.000000D+00  0.000000D+00  0.000000D+00
     10  -0.398230D+00  0.574582D+00 -0.398230D+00  0.574582D+00 -0.372162D+00
     11   0.000000D+00  0.000000D+00  0.000000D+00  0.000000D+00  0.000000D+00
     12   0.000000D+00  0.000000D+00  0.000000D+00  0.000000D+00  0.000000D+00
                36            37            38 
      1   0.400640D+00 -0.400640D+00 -0.400640D+00
      2   0.000000D+00  0.000000D+00  0.000000D+00
      3   0.000000D+00  0.000000D+00  0.000000D+00
      4  -0.284803D+00  0.648678D+00  0.284803D+00
      5   0.000000D+00  0.000000D+00  0.000000D+00
      6   0.000000D+00  0.000000D+00  0.000000D+00
      7  -0.640849D+00 -0.620200D+00  0.640849D+00
      8   0.000000D+00  0.000000D+00  0.000000D+00
      9   0.000000D+00  0.000000D+00  0.000000D+00
     10   0.525012D+00  0.372162D+00 -0.525012D+00
     11   0.000000D+00  0.000000D+00  0.000000D+00
     12   0.000000D+00  0.000000D+00  0.000000D+00
 Iteration  1 RMS(Cart)=  0.00020688 RMS(Int)=  0.00000001
 Iteration  2 RMS(Cart)=  0.00000001 RMS(Int)=  0.00000000
 Input Coordinates in SymCor: 
                 1             2             3             4             5 
      1   0.000000D+00  0.000000D+00  0.000000D+00  0.000000D+00  0.000000D+00
      2   0.126182D+01 -0.126182D+01  0.000000D+00  0.256967D+01 -0.256967D+01
      3  -0.237790D+01 -0.237790D+01  0.183634D+01 -0.394863D+01 -0.394863D+01
                 6             7             8             9 
      1   0.000000D+00  0.000000D+00  0.000000D+00  0.000000D+00
      2   0.213879D+01 -0.213879D+01  0.424324D+01 -0.424324D+01
      3   0.299950D+00  0.299950D+00  0.113340D+01  0.113340D+01
 Symmetrized Coordinates in SymCor: 
                 1             2             3             4             5 
      1   0.000000D+00  0.000000D+00  0.000000D+00  0.000000D+00  0.000000D+00
      2   0.126182D+01 -0.126182D+01  0.000000D+00  0.256967D+01 -0.256967D+01
      3  -0.237790D+01 -0.237790D+01  0.183634D+01 -0.394863D+01 -0.394863D+01
                 6             7             8             9 
      1   0.000000D+00  0.000000D+00  0.000000D+00  0.000000D+00
      2   0.213879D+01 -0.213879D+01  0.424324D+01 -0.424324D+01
      3   0.299950D+00  0.299950D+00  0.113340D+01  0.113340D+01
 Final Coordinates in SymCor: 
                 1             2             3             4             5 
      1   0.000000D+00  0.000000D+00  0.000000D+00  0.000000D+00  0.000000D+00
      2   0.126182D+01 -0.126182D+01  0.000000D+00  0.256967D+01 -0.256967D+01
      3  -0.237790D+01 -0.237790D+01  0.183634D+01 -0.394863D+01 -0.394863D+01
                 6             7             8             9 
      1   0.000000D+00  0.000000D+00  0.000000D+00  0.000000D+00
      2   0.213879D+01 -0.213879D+01  0.424324D+01 -0.424324D+01
      3   0.299950D+00  0.299950D+00  0.113340D+01  0.113340D+01
 ClnCor:  largest displacement from symmetrization is 6.76D-12 for atom     5.
 Variable       Old X    -DE/DX   Delta X   Delta X   Delta X     New X
                                 (Linear)    (Quad)   (Total)
    R1        2.52396  -0.00021   0.00000  -0.00032  -0.00032   2.52364
    R2        2.04390   0.00001   0.00000   0.00004   0.00004   2.04394
    R3        2.81831  -0.00017   0.00000  -0.00052  -0.00052   2.81779
    R4        2.04390   0.00001   0.00000   0.00004   0.00004   2.04394
    R5        2.81831  -0.00017   0.00000  -0.00052  -0.00052   2.81779
    R6        2.63382  -0.00014   0.00000  -0.00040  -0.00040   2.63342
    R7        2.63382  -0.00014   0.00000  -0.00040  -0.00040   2.63342
    R8        2.26342   0.00001   0.00000   0.00007   0.00007   2.26349
    R9        2.26342   0.00001   0.00000   0.00007   0.00007   2.26349
    A1        2.26492   0.00001   0.00000   0.00020   0.00020   2.26512
    A2        1.88728   0.00001   0.00000  -0.00000  -0.00000   1.88728
    A3        2.13099  -0.00003   0.00000  -0.00020  -0.00020   2.13078
    A4        2.26492   0.00001   0.00000   0.00020   0.00020   2.26512
    A5        1.88728   0.00001   0.00000  -0.00000  -0.00000   1.88728
    A6        2.13099  -0.00003   0.00000  -0.00020  -0.00020   2.13078
    A7        1.89572  -0.00000   0.00000   0.00000   0.00000   1.89572
    A8        1.87725  -0.00001   0.00000  -0.00000  -0.00000   1.87725
    A9        2.26444  -0.00001   0.00000  -0.00007  -0.00007   2.26437
   A10        2.14150   0.00002   0.00000   0.00007   0.00007   2.14157
   A11        1.87725  -0.00001   0.00000  -0.00000  -0.00000   1.87725
   A12        2.26444  -0.00001   0.00000  -0.00007  -0.00007   2.26437
   A13        2.14150   0.00002   0.00000   0.00007   0.00007   2.14157
    D1        0.00000   0.00000   0.00000  -0.00000   0.00000   0.00000
    D2        3.14159  -0.00000   0.00000  -0.00000   0.00000   3.14159
    D3        3.14159   0.00000   0.00000   0.00000   0.00000   3.14159
    D4        0.00000   0.00000   0.00000  -0.00000  -0.00000   0.00000
    D5        0.00000  -0.00000   0.00000  -0.00000   0.00000   0.00000
    D6        3.14159  -0.00000   0.00000  -0.00000   0.00000   3.14159
    D7        3.14159   0.00000   0.00000  -0.00000   0.00000   3.14159
    D8       -0.00000  -0.00000   0.00000  -0.00000   0.00000   0.00000
    D9       -0.00000   0.00000   0.00000   0.00000   0.00000   0.00000
   D10        3.14159   0.00000   0.00000   0.00000   0.00000   3.14159
   D11        3.14159  -0.00000   0.00000   0.00000   0.00000   3.14159
   D12       -0.00000   0.00000   0.00000   0.00000   0.00000   0.00000
   D13       -0.00000   0.00000   0.00000   0.00000   0.00000   0.00000
   D14        3.14159   0.00000   0.00000   0.00000   0.00000   3.14159
   D15        0.00000  -0.00000   0.00000  -0.00000   0.00000   0.00000
   D16        3.14159  -0.00000   0.00000  -0.00000   0.00000   3.14159
         Item               Value     Threshold  Converged?
 Maximum Force            0.000207     0.000450     YES
 RMS     Force            0.000062     0.000300     YES
 Maximum Displacement     0.000513     0.001800     YES
 RMS     Displacement     0.000207     0.001200     YES
 Predicted change in Energy=-1.902724D-07
 Optimization completed.
    -- Stationary point found.
                           ----------------------------
                           !   Optimized Parameters   !
                           ! (Angstroms and Degrees)  !
 --------------------------                            --------------------------
 ! Name  Definition              Value          Derivative Info.                !
 --------------------------------------------------------------------------------
 ! R1    R(1,2)                  1.3356         -DE/DX =   -0.0002              !
 ! R2    R(1,4)                  1.0816         -DE/DX =    0.0                 !
 ! R3    R(1,6)                  1.4914         -DE/DX =   -0.0002              !
 ! R4    R(2,5)                  1.0816         -DE/DX =    0.0                 !
 ! R5    R(2,7)                  1.4914         -DE/DX =   -0.0002              !
 ! R6    R(3,6)                  1.3938         -DE/DX =   -0.0001              !
 ! R7    R(3,7)                  1.3938         -DE/DX =   -0.0001              !
 ! R8    R(6,8)                  1.1978         -DE/DX =    0.0                 !
 ! R9    R(7,9)                  1.1978         -DE/DX =    0.0                 !
 ! A1    A(2,1,4)              129.7704         -DE/DX =    0.0                 !
 ! A2    A(2,1,6)              108.1331         -DE/DX =    0.0                 !
 ! A3    A(4,1,6)              122.0965         -DE/DX =    0.0                 !
 ! A4    A(1,2,5)              129.7704         -DE/DX =    0.0                 !
 ! A5    A(1,2,7)              108.1331         -DE/DX =    0.0                 !
 ! A6    A(5,2,7)              122.0965         -DE/DX =    0.0                 !
 ! A7    A(6,3,7)              108.6169         -DE/DX =    0.0                 !
 ! A8    A(1,6,3)              107.5585         -DE/DX =    0.0                 !
 ! A9    A(1,6,8)              129.7427         -DE/DX =    0.0                 !
 ! A10   A(3,6,8)              122.6988         -DE/DX =    0.0                 !
 ! A11   A(2,7,3)              107.5585         -DE/DX =    0.0                 !
 ! A12   A(2,7,9)              129.7427         -DE/DX =    0.0                 !
 ! A13   A(3,7,9)              122.6988         -DE/DX =    0.0                 !
 ! D1    D(4,1,2,5)              0.0            -DE/DX =    0.0                 !
 ! D2    D(4,1,2,7)            180.0            -DE/DX =    0.0                 !
 ! D3    D(6,1,2,5)            180.0            -DE/DX =    0.0                 !
 ! D4    D(6,1,2,7)              0.0            -DE/DX =    0.0                 !
 ! D5    D(2,1,6,3)              0.0            -DE/DX =    0.0                 !
 ! D6    D(2,1,6,8)            180.0            -DE/DX =    0.0                 !
 ! D7    D(4,1,6,3)            180.0            -DE/DX =    0.0                 !
 ! D8    D(4,1,6,8)              0.0            -DE/DX =    0.0                 !
 ! D9    D(1,2,7,3)              0.0            -DE/DX =    0.0                 !
 ! D10   D(1,2,7,9)            180.0            -DE/DX =    0.0                 !
 ! D11   D(5,2,7,3)            180.0            -DE/DX =    0.0                 !
 ! D12   D(5,2,7,9)              0.0            -DE/DX =    0.0                 !
 ! D13   D(7,3,6,1)              0.0            -DE/DX =    0.0                 !
 ! D14   D(7,3,6,8)            180.0            -DE/DX =    0.0                 !
 ! D15   D(6,3,7,2)              0.0            -DE/DX =    0.0                 !
 ! D16   D(6,3,7,9)            180.0            -DE/DX =    0.0                 !
 --------------------------------------------------------------------------------
 GradGradGradGradGradGradGradGradGradGradGradGradGradGradGradGradGradGrad

 Leave Link  103 at Sat Aug 10 16:33:52 2019, MaxMem=  4294967296 cpu:               0.3 elap:               0.0

 ----------------------------------------------------------------------

 Electric dipole moment (input orientation):
 (Debye = 10**-18 statcoulomb cm , SI units = C m)
                  (au)            (Debye)         (10**-30 SI)
   Tot        0.160159D+01      0.407084D+01      0.135789D+02
   x          0.000000D+00      0.000000D+00      0.000000D+00
   y          0.000000D+00      0.000000D+00      0.000000D+00
   z         -0.160159D+01     -0.407084D+01     -0.135789D+02

 Dipole polarizability, Alpha (input orientation).
 (esu units = cm**3 , SI units = C**2 m**2 J**-1)
 Alpha(0;0):
               (au)            (10**-24 esu)      (10**-40 SI)
   iso        0.442998D+02      0.656455D+01      0.730405D+01
   aniso      0.446434D+02      0.661548D+01      0.736071D+01
   xx         0.200662D+02      0.297350D+01      0.330846D+01
   yx         0.000000D+00      0.000000D+00      0.000000D+00
   yy         0.713797D+02      0.105774D+02      0.117689D+02
   zx         0.000000D+00      0.000000D+00      0.000000D+00
   zy         0.000000D+00      0.000000D+00      0.000000D+00
   zz         0.414535D+02      0.614277D+01      0.683476D+01

 ----------------------------------------------------------------------

 Dipole orientation:
     6          0.00000000         -1.26198178          2.37817119
     6         -0.00000000          1.26198178          2.37817119
     8          0.00000000          0.00000000         -1.83679868
     1          0.00000000         -2.56949085          3.94914021
     1         -0.00000000          2.56949085          3.94914021
     6          0.00000000         -2.13910950         -0.30016977
     6         -0.00000000          2.13910950         -0.30016977
     8          0.00000000         -4.24344426         -1.13374497
     8         -0.00000000          4.24344426         -1.13374497

 Electric dipole moment (dipole orientation):
 (Debye = 10**-18 statcoulomb cm , SI units = C m)
                  (au)            (Debye)         (10**-30 SI)
   Tot        0.160159D+01      0.407084D+01      0.135789D+02
   x          0.000000D+00      0.000000D+00      0.000000D+00
   y          0.000000D+00      0.000000D+00      0.000000D+00
   z          0.160159D+01      0.407084D+01      0.135789D+02

 Dipole polarizability, Alpha (dipole orientation).
 (esu units = cm**3 , SI units = C**2 m**2 J**-1)
 Alpha(0;0):
               (au)            (10**-24 esu)      (10**-40 SI)
   iso        0.442998D+02      0.656455D+01      0.730405D+01
   aniso      0.446434D+02      0.661548D+01      0.736071D+01
   xx         0.200662D+02      0.297350D+01      0.330846D+01
   yx         0.000000D+00      0.000000D+00      0.000000D+00
   yy         0.713797D+02      0.105774D+02      0.117689D+02
   zx         0.000000D+00      0.000000D+00      0.000000D+00
   zy         0.000000D+00      0.000000D+00      0.000000D+00
   zz         0.414535D+02      0.614277D+01      0.683476D+01

 ----------------------------------------------------------------------

 Test job not archived.
 1\1\NSC-N1703\Freq\RB3LYP\6-31G(d,p)\C4H2O3\X_KJEJO\10-Aug-2019\0\\# f
 req(hpmodes,intmodes) iop(1/33=3) b3lyp/6-31g(d,p) geom=connectivity i
 op(7/75=-1)\\name\\0,1\C,0.,0.667812,-1.258474\C,0.,-0.667812,-1.25847
 4\O,0.,0.,0.971992\H,0.,1.359716,-2.089795\H,0.,-1.359716,-2.089795\C,
 0.,1.131968,0.158843\C,0.,-1.131968,0.158843\O,0.,2.245534,0.599952\O,
 0.,-2.245534,0.599952\\Version=ES64L-G16RevB.01\State=1-A1\HF=-379.292
 7219\RMSD=8.763e-09\RMSF=9.137e-05\ZeroPoint=0.0558156\Thermal=0.06099
 98\Dipole=0.,0.,-1.6015907\DipoleDeriv=-0.0904801,0.,0.,0.,-0.0371595,
 -0.1737772,0.,-0.2417416,-0.1353599,-0.0904801,0.,0.,0.,-0.0371595,0.1
 737772,0.,0.2417416,-0.1353599,-0.2028902,0.,0.,0.,-1.3478407,0.,0.,0.
 ,-0.8021779,0.1430852,0.,0.,0.,0.0779649,0.0311695,0.,0.0243736,0.0436
 186,0.1430852,0.,0.,0.,0.0779649,-0.0311695,0.,-0.0243736,0.0436186,0.
 383824,0.,0.,0.,1.7019319,0.0867947,0.,0.1486068,1.019548,0.383824,0.,
 0.,0.,1.7019319,-0.0867947,0.,-0.1486068,1.019548,-0.334984,0.,0.,0.,-
 1.068817,-0.1261736,0.,-0.3376877,-0.5267178,-0.334984,0.,0.,0.,-1.068
 817,0.1261736,0.,0.3376877,-0.5267178\Polar=20.0661671,0.,71.3797005,0
 .,0.,41.4534815\Quadrupole=2.2813256,-5.3607091,3.0793835,0.,0.,0.\PG=
 C02V [C2(O1),SGV(C4H2O2)]\NImag=0\\0.11047191,0.,0.87096321,0.,-0.1483
 9062,0.60921928,-0.04576508,0.,0.,0.11047191,0.,-0.54136328,-0.0022570
 4,0.,0.87096321,0.,0.00225704,-0.11505297,0.,0.14839062,0.60921928,0.0
 1568807,0.,0.,0.01568807,0.,0.,0.05171568,0.,-0.00548674,0.01981167,0.
 ,-0.00548674,-0.01981167,0.,0.37559562,0.,0.02403735,-0.04739256,0.,-0
 .02403735,-0.04739256,0.,0.,0.40556055,-0.03778994,0.,0.,0.00704038,0.
 ,0.,0.00206310,0.,0.,0.02433903,0.,-0.17987610,0.14905089,0.,-0.007325
 86,0.02444135,0.,0.00275869,-0.00448489,0.,0.18054502,0.,0.14833201,-0
 .23753501,0.,-0.00489795,0.00979245,0.,0.00203836,-0.00462375,0.,-0.16
 048866,0.24117710,0.00704038,0.,0.,-0.03778994,0.,0.,0.00206310,0.,0.,
 -0.00494068,0.,0.,0.02433903,0.,-0.00732586,-0.02444135,0.,-0.17987610
 ,-0.14905089,0.,0.00275869,0.00448489,0.,0.00089741,0.00058574,0.,0.18
 054502,0.,0.00489795,0.00979245,0.,-0.14833201,-0.23753501,0.,-0.00203
 836,-0.00462375,0.,-0.00058574,0.00018127,0.,0.16048866,0.24117710,-0.
 07407343,0.,0.,0.00242245,0.,0.,-0.05701860,0.,0.,0.00024449,0.,0.,0.0
 1275431,0.,0.,0.18878555,0.,-0.08298372,0.00063054,0.,-0.03216568,-0.0
 2622453,0.,-0.08219843,0.02834606,0.,0.01003980,0.02044284,0.,-0.00612
 061,0.00449166,0.,0.97231339,0.,-0.01237735,-0.19196594,0.,-0.03058162
 ,-0.00976261,0.,0.03853233,-0.18823710,0.,-0.00789912,-0.00873319,0.,0
 .00398313,-0.00340237,0.,0.26616345,0.55920351,0.00242245,0.,0.,-0.074
 07343,0.,0.,-0.05701860,0.,0.,0.01275431,0.,0.,0.00024449,0.,0.,-0.014
 32731,0.,0.,0.18878555,0.,-0.03216568,0.02622453,0.,-0.08298372,-0.000
 63054,0.,-0.08219843,-0.02834606,0.,-0.00612061,-0.00449166,0.,0.01003
 980,-0.02044284,0.,-0.10795459,0.03711572,0.,0.97231339,0.,0.03058162,
 -0.00976261,0.,0.01237735,-0.19196594,0.,-0.03853233,-0.18823710,0.,-0
 .00398313,-0.00340237,0.,0.00789912,-0.00873319,0.,-0.03711572,0.06881
 469,0.,-0.26616345,0.55920351,0.02064675,0.,0.,0.00135889,0.,0.,0.0134
 0959,0.,0.,-0.00090455,0.,0.,-0.00280615,0.,0.,-0.06539686,0.,0.,0.006
 60941,0.,0.,0.02824488,0.,-0.02798911,-0.02753253,0.,0.00622727,-0.006
 90390,0.,-0.10287133,-0.00287072,0.,-0.00012201,-0.00219976,0.,-0.0007
 9634,-0.00067907,0.,-0.69013677,-0.26771708,0.,0.01920661,0.02721945,0
 .,0.80801141,0.,-0.04825443,-0.00879298,0.,0.00108357,-0.00850966,0.,0
 .02192266,0.03747313,0.,0.00148265,0.00174423,0.,-0.00246665,0.0013992
 6,0.,-0.26005025,-0.21430188,0.,-0.00331597,-0.01161511,0.,0.28514101,
 0.20011349,0.00135889,0.,0.,0.02064675,0.,0.,0.01340959,0.,0.,-0.00280
 615,0.,0.,-0.00090455,0.,0.,0.00660941,0.,0.,-0.06539686,0.,0.,-0.0011
 6197,0.,0.,0.02824488,0.,0.00622727,0.00690390,0.,-0.02798911,0.027532
 53,0.,-0.10287133,0.00287072,0.,-0.00079634,0.00067907,0.,-0.00012201,
 0.00219976,0.,0.01920661,-0.02721945,0.,-0.69013677,0.26771708,0.,-0.0
 1152972,0.00445740,0.,0.80801141,0.,-0.00108357,-0.00850966,0.,0.04825
 443,-0.00879298,0.,-0.02192266,0.03747313,0.,0.00246665,0.00139926,0.,
 -0.00148265,0.00174423,0.,0.00331597,-0.01161511,0.,0.26005025,-0.2143
 0188,0.,-0.00445740,0.00248952,0.,-0.28514101,0.20011349\\0.,0.0001941
 0,-0.00016159,0.,-0.00019410,-0.00016159,0.,0.,0.00018521,0.,-0.000023
 45,-0.00000340,0.,0.00002345,-0.00000340,0.,0.00016283,0.00006674,0.,-
 0.00016283,0.00006674,0.,-0.00001428,0.00000564,0.,0.00001428,0.000005
 64\\\@


 ... A MOLECULAR SYSTEM ... (PASSES) ... FROM ONE STATE OF EQUILIBRIUM 
 TO ANOTHER ... BY MEANS OF ALL POSSIBLE INTERMEDIATE PATHS, 
 BUT THE PATH MOST ECONOMICAL OF ENERGY WILL BE THE MORE OFTEN TRAVELED.

                      -- HENRY EYRING, 1945
 Job cpu time:       0 days  0 hours  1 minutes 44.6 seconds.
 Elapsed time:       0 days  0 hours  0 minutes  7.5 seconds.
 File lengths (MBytes):  RWF=     15 Int=      0 D2E=      0 Chk=      8 Scr=      1
 Normal termination of Gaussian 16 at Sat Aug 10 16:33:52 2019.
