 Entering Gaussian System, Link 0=/software/sse/easybuild/prefix/software/Gaussian/16.B.01-avx2-nsc1-bdist/g16/g16.orig
 Input=freq-hp.wrap
 Output=freq-hp.log
 Initial command:
 /software/sse/easybuild/prefix/software/Gaussian/16.B.01-avx2-nsc1-bdist/g16/l1.exe "/scratch/local/Gau-34266.inp" -scrdir="/scratch/local/"
 Default is to use a total of  16 processors:
                               16 via shared-memory
                                1 via Linda
 Entering Link 1 = /software/sse/easybuild/prefix/software/Gaussian/16.B.01-avx2-nsc1-bdist/g16/l1.exe PID=     34270.
  
 Copyright (c) 1988-2017, Gaussian, Inc.  All Rights Reserved.
  
 This is part of the Gaussian(R) 16 program.  It is based on
 the Gaussian(R) 09 system (copyright 2009, Gaussian, Inc.),
 the Gaussian(R) 03 system (copyright 2003, Gaussian, Inc.),
 the Gaussian(R) 98 system (copyright 1998, Gaussian, Inc.),
 the Gaussian(R) 94 system (copyright 1995, Gaussian, Inc.),
 the Gaussian 92(TM) system (copyright 1992, Gaussian, Inc.),
 the Gaussian 90(TM) system (copyright 1990, Gaussian, Inc.),
 the Gaussian 88(TM) system (copyright 1988, Gaussian, Inc.),
 the Gaussian 86(TM) system (copyright 1986, Carnegie Mellon
 University), and the Gaussian 82(TM) system (copyright 1983,
 Carnegie Mellon University). Gaussian is a federally registered
 trademark of Gaussian, Inc.
  
 This software contains proprietary and confidential information,
 including trade secrets, belonging to Gaussian, Inc.
  
 This software is provided under written license and may be
 used, copied, transmitted, or stored only in accord with that
 written license.
  
 The following legend is applicable only to US Government
 contracts under FAR:
  
                    RESTRICTED RIGHTS LEGEND
  
 Use, reproduction and disclosure by the US Government is
 subject to restrictions as set forth in subparagraphs (a)
 and (c) of the Commercial Computer Software - Restricted
 Rights clause in FAR 52.227-19.
  
 Gaussian, Inc.
 340 Quinnipiac St., Bldg. 40, Wallingford CT 06492
  
  
 ---------------------------------------------------------------
 Warning -- This program may not be used in any manner that
 competes with the business of Gaussian, Inc. or will provide
 assistance to any competitor of Gaussian, Inc.  The licensee
 of this program is prohibited from giving any competitor of
 Gaussian, Inc. access to this program.  By using this program,
 the user acknowledges that Gaussian, Inc. is engaged in the
 business of creating and licensing software in the field of
 computational chemistry and represents and warrants to the
 licensee that it is not a competitor of Gaussian, Inc. and that
 it will not use this program in any manner prohibited above.
 ---------------------------------------------------------------
  

 Cite this work as:
 Gaussian 16, Revision B.01,
 M. J. Frisch, G. W. Trucks, H. B. Schlegel, G. E. Scuseria, 
 M. A. Robb, J. R. Cheeseman, G. Scalmani, V. Barone, 
 G. A. Petersson, H. Nakatsuji, X. Li, M. Caricato, A. V. Marenich, 
 J. Bloino, B. G. Janesko, R. Gomperts, B. Mennucci, H. P. Hratchian, 
 J. V. Ortiz, A. F. Izmaylov, J. L. Sonnenberg, D. Williams-Young, 
 F. Ding, F. Lipparini, F. Egidi, J. Goings, B. Peng, A. Petrone, 
 T. Henderson, D. Ranasinghe, V. G. Zakrzewski, J. Gao, N. Rega, 
 G. Zheng, W. Liang, M. Hada, M. Ehara, K. Toyota, R. Fukuda, 
 J. Hasegawa, M. Ishida, T. Nakajima, Y. Honda, O. Kitao, H. Nakai, 
 T. Vreven, K. Throssell, J. A. Montgomery, Jr., J. E. Peralta, 
 F. Ogliaro, M. J. Bearpark, J. J. Heyd, E. N. Brothers, K. N. Kudin, 
 V. N. Staroverov, T. A. Keith, R. Kobayashi, J. Normand, 
 K. Raghavachari, A. P. Rendell, J. C. Burant, S. S. Iyengar, 
 J. Tomasi, M. Cossi, J. M. Millam, M. Klene, C. Adamo, R. Cammi, 
 J. W. Ochterski, R. L. Martin, K. Morokuma, O. Farkas, 
 J. B. Foresman, and D. J. Fox, Gaussian, Inc., Wallingford CT, 2016.
 
 ******************************************
 Gaussian 16:  ES64L-G16RevB.01 20-Dec-2017
                10-Aug-2019 
 ******************************************
 %chk=freq.chk
 ----------------------------------------------------------------------
 # freq(hpmodes,intmodes) iop(1/33=3) b3lyp/6-31g(d,p) geom=connectivit
 y iop(7/75=-1)
 ----------------------------------------------------------------------
 1/10=4,18=20,30=1,33=3,38=1,57=2/1,3;
 2/9=110,12=2,17=6,18=5,40=1/2;
 3/5=1,6=6,7=101,11=2,25=1,30=1,71=2,74=-5,140=1/1,2,3;
 4//1;
 5/5=2,38=5,98=1/2;
 8/6=4,10=90,11=11/1;
 11/6=1,8=1,9=11,15=111,16=1/1,2,10;
 10/6=1/2;
 6/7=2,8=2,9=2,10=2,28=1/1;
 7/8=31,10=1,25=1,75=-1/1,2,3,16;
 1/10=4,18=20,30=1,33=3/3;
 99//99;
 ONIOM results not found on unit 2.
 ----
 name
 ----
 TstMul:  ICh=     0
 TstMul:  Mul=     1
 TstMul:  ICh=     0
 TstMul:  Mul=     1
 Symbolic Z-matrix:
 Charge =  0 Multiplicity = 1
 C                     0.        1.24346  -0.01164 
 C                     0.        0.71473  -1.27254 
 C                     0.       -0.71473  -1.27254 
 C                     0.       -1.24346  -0.01164 
 S                     0.        0.        1.19942 
 H                     0.        2.28392   0.28129 
 H                     0.        1.32043  -2.1716 
 H                     0.       -1.32043  -2.1716 
 H                     0.       -2.28392   0.28129 
 
 RdStrC is calling ZToCFu for IStruc=1 NZ=     9.
                                ZToCFu                                
 ---------------------------------------------------------------------
 Center     Atomic      Atomic             Coordinates (Angstroms)
 Number     Number       Type             X           Y           Z
 ---------------------------------------------------------------------
      1          6           0        0.000000    1.243456   -0.011638
      2          6           0        0.000000    0.714733   -1.272536
      3          6           0        0.000000   -0.714733   -1.272536
      4          6           0        0.000000   -1.243456   -0.011638
      5         16           0        0.000000    0.000000    1.199420
      6          1           0        0.000000    2.283925    0.281289
      7          1           0        0.000000    1.320431   -2.171604
      8          1           0        0.000000   -1.320431   -2.171604
      9          1           0        0.000000   -2.283925    0.281289
 ---------------------------------------------------------------------
 Connectivity in DoCon:
 I=     1 IAn=  6 IBond, RBType=     2  2.00     5  1.00     6  1.00
 I=     2 IAn=  6 IBond, RBType=     1  2.00     3  1.50     7  1.00
 I=     3 IAn=  6 IBond, RBType=     2  1.50     4  2.00     8  1.00
 I=     4 IAn=  6 IBond, RBType=     3  2.00     5  1.00     9  1.00
 I=     5 IAn= 16 IBond, RBType=     1  1.00     4  1.00
 I=     6 IAn=  1 IBond, RBType=     1  1.00
 I=     7 IAn=  1 IBond, RBType=     2  1.00
 I=     8 IAn=  1 IBond, RBType=     3  1.00
 I=     9 IAn=  1 IBond, RBType=     4  1.00
 After GenITR:
 ITRead=  0  0  0  0  0  0  0  0  0
 MicOpt= -1 -1 -1 -1 -1 -1 -1 -1 -1
 List IsCon N=      9 M=      2:
 I=      1 Vals=      2      2 |      5      1 |      6      1 |
 I=      2 Vals=      1      2 |      3      1 |      7      1 |
 I=      3 Vals=      2      1 |      4      2 |      8      1 |
 I=      4 Vals=      3      2 |      5      1 |      9      1 |
 I=      5 Vals=      1      1 |      4      1 |
 I=      6 Vals=      1      1 |
 I=      7 Vals=      2      1 |
 I=      8 Vals=      3      1 |
 I=      9 Vals=      4      1 |
 Coordinate R1 contains atom 1 which is already in QM block.
 Coordinate R1 contains atom 2 which is already in QM block.
 Coordinate R2 contains atom 1 which is already in QM block.
 Coordinate R2 contains atom 5 which is already in QM block.
 Coordinate R3 contains atom 1 which is already in QM block.
 Coordinate R3 contains atom 6 which is already in QM block.
 Coordinate R4 contains atom 2 which is already in QM block.
 Coordinate R4 contains atom 3 which is already in QM block.
 Coordinate R5 contains atom 2 which is already in QM block.
 Coordinate R5 contains atom 7 which is already in QM block.
 Coordinate R6 contains atom 3 which is already in QM block.
 Coordinate R6 contains atom 4 which is already in QM block.
 Coordinate R7 contains atom 3 which is already in QM block.
 Coordinate R7 contains atom 8 which is already in QM block.
 Coordinate R8 contains atom 4 which is already in QM block.
 Coordinate R8 contains atom 5 which is already in QM block.
 Coordinate R9 contains atom 4 which is already in QM block.
 Coordinate R9 contains atom 9 which is already in QM block.
 Coordinate A1 contains atom 2 which is already in QM block.
 Coordinate A1 contains atom 1 which is already in QM block.
 Coordinate A1 contains atom 1 which is already in QM block.
 Coordinate A2 contains atom 2 which is already in QM block.
 Coordinate A2 contains atom 1 which is already in QM block.
 Coordinate A2 contains atom 1 which is already in QM block.
 Coordinate A3 contains atom 5 which is already in QM block.
 Coordinate A3 contains atom 1 which is already in QM block.
 Coordinate A3 contains atom 1 which is already in QM block.
 Coordinate A4 contains atom 1 which is already in QM block.
 Coordinate A4 contains atom 2 which is already in QM block.
 Coordinate A4 contains atom 2 which is already in QM block.
 Coordinate A5 contains atom 1 which is already in QM block.
 Coordinate A5 contains atom 2 which is already in QM block.
 Coordinate A5 contains atom 2 which is already in QM block.
 Coordinate A6 contains atom 3 which is already in QM block.
 Coordinate A6 contains atom 2 which is already in QM block.
 Coordinate A6 contains atom 2 which is already in QM block.
 Coordinate A7 contains atom 2 which is already in QM block.
 Coordinate A7 contains atom 3 which is already in QM block.
 Coordinate A7 contains atom 3 which is already in QM block.
 Coordinate A8 contains atom 2 which is already in QM block.
 Coordinate A8 contains atom 3 which is already in QM block.
 Coordinate A8 contains atom 3 which is already in QM block.
 Coordinate A9 contains atom 4 which is already in QM block.
 Coordinate A9 contains atom 3 which is already in QM block.
 Coordinate A9 contains atom 3 which is already in QM block.
 Coordinate A10 contains atom 3 which is already in QM block.
 Coordinate A10 contains atom 4 which is already in QM block.
 Coordinate A10 contains atom 4 which is already in QM block.
 Coordinate A11 contains atom 3 which is already in QM block.
 Coordinate A11 contains atom 4 which is already in QM block.
 Coordinate A11 contains atom 4 which is already in QM block.
 Coordinate A12 contains atom 5 which is already in QM block.
 Coordinate A12 contains atom 4 which is already in QM block.
 Coordinate A12 contains atom 4 which is already in QM block.
 Coordinate A13 contains atom 1 which is already in QM block.
 Coordinate A13 contains atom 5 which is already in QM block.
 Coordinate A13 contains atom 5 which is already in QM block.
 Coordinate D1 contains atom 5 which is already in QM block.
 Coordinate D1 contains atom 1 which is already in QM block.
 Coordinate D1 contains atom 2 which is already in QM block.
 Coordinate D1 contains atom 3 which is already in QM block.
 Coordinate D2 contains atom 5 which is already in QM block.
 Coordinate D2 contains atom 1 which is already in QM block.
 Coordinate D2 contains atom 2 which is already in QM block.
 Coordinate D2 contains atom 7 which is already in QM block.
 Coordinate D3 contains atom 6 which is already in QM block.
 Coordinate D3 contains atom 1 which is already in QM block.
 Coordinate D3 contains atom 2 which is already in QM block.
 Coordinate D3 contains atom 3 which is already in QM block.
 Coordinate D4 contains atom 6 which is already in QM block.
 Coordinate D4 contains atom 1 which is already in QM block.
 Coordinate D4 contains atom 2 which is already in QM block.
 Coordinate D4 contains atom 7 which is already in QM block.
 Coordinate D5 contains atom 2 which is already in QM block.
 Coordinate D5 contains atom 1 which is already in QM block.
 Coordinate D5 contains atom 5 which is already in QM block.
 Coordinate D5 contains atom 4 which is already in QM block.
 Coordinate D6 contains atom 6 which is already in QM block.
 Coordinate D6 contains atom 1 which is already in QM block.
 Coordinate D6 contains atom 5 which is already in QM block.
 Coordinate D6 contains atom 4 which is already in QM block.
 Coordinate D7 contains atom 1 which is already in QM block.
 Coordinate D7 contains atom 2 which is already in QM block.
 Coordinate D7 contains atom 3 which is already in QM block.
 Coordinate D7 contains atom 4 which is already in QM block.
 Coordinate D8 contains atom 1 which is already in QM block.
 Coordinate D8 contains atom 2 which is already in QM block.
 Coordinate D8 contains atom 3 which is already in QM block.
 Coordinate D8 contains atom 8 which is already in QM block.
 Coordinate D9 contains atom 7 which is already in QM block.
 Coordinate D9 contains atom 2 which is already in QM block.
 Coordinate D9 contains atom 3 which is already in QM block.
 Coordinate D9 contains atom 4 which is already in QM block.
 Coordinate D10 contains atom 7 which is already in QM block.
 Coordinate D10 contains atom 2 which is already in QM block.
 Coordinate D10 contains atom 3 which is already in QM block.
 Coordinate D10 contains atom 8 which is already in QM block.
 Coordinate D11 contains atom 2 which is already in QM block.
 Coordinate D11 contains atom 3 which is already in QM block.
 Coordinate D11 contains atom 4 which is already in QM block.
 Coordinate D11 contains atom 5 which is already in QM block.
 Coordinate D12 contains atom 2 which is already in QM block.
 Coordinate D12 contains atom 3 which is already in QM block.
 Coordinate D12 contains atom 4 which is already in QM block.
 Coordinate D12 contains atom 9 which is already in QM block.
 Coordinate D13 contains atom 8 which is already in QM block.
 Coordinate D13 contains atom 3 which is already in QM block.
 Coordinate D13 contains atom 4 which is already in QM block.
 Coordinate D13 contains atom 5 which is already in QM block.
 Coordinate D14 contains atom 8 which is already in QM block.
 Coordinate D14 contains atom 3 which is already in QM block.
 Coordinate D14 contains atom 4 which is already in QM block.
 Coordinate D14 contains atom 9 which is already in QM block.
 Coordinate D15 contains atom 3 which is already in QM block.
 Coordinate D15 contains atom 4 which is already in QM block.
 Coordinate D15 contains atom 5 which is already in QM block.
 Coordinate D15 contains atom 1 which is already in QM block.
 Coordinate D16 contains atom 9 which is already in QM block.
 Coordinate D16 contains atom 4 which is already in QM block.
 Coordinate D16 contains atom 5 which is already in QM block.
 Coordinate D16 contains atom 1 which is already in QM block.
 Saved connectivity
 I=     1 IAn=  6 IBond, RBType=     2  2.00     5  1.00     6  1.00
 I=     2 IAn=  6 IBond, RBType=     1  2.00     3  1.50     7  1.00
 I=     3 IAn=  6 IBond, RBType=     2  1.50     4  2.00     8  1.00
 I=     4 IAn=  6 IBond, RBType=     3  2.00     5  1.00     9  1.00
 I=     5 IAn= 16 IBond, RBType=     1  1.00     4  1.00
 I=     6 IAn=  1 IBond, RBType=     1  1.00
 I=     7 IAn=  1 IBond, RBType=     2  1.00
 I=     8 IAn=  1 IBond, RBType=     3  1.00
 I=     9 IAn=  1 IBond, RBType=     4  1.00
 ITRead=  0  0  0  0  0  0  0  0  0
 MicOpt= -1 -1 -1 -1 -1 -1 -1 -1 -1
 NAtoms=      9 NQM=        9 NQMF=       0 NMMI=      0 NMMIF=      0
                NMic=       0 NMicF=      0.
 No MM parameters found.
 Leave Link  101 at Sat Aug 10 16:33:47 2019, MaxMem=  4294967296 cpu:               9.0 elap:               0.8

 GradGradGradGradGradGradGradGradGradGradGradGradGradGradGradGradGradGrad
 Berny optimization.
 GetPCM: File not found, return IValue=0.
 Optmz: redundant internal coordinate code flag= 1
 Initialization pass.
                           ----------------------------
                           !    Initial Parameters    !
                           ! (Angstroms and Degrees)  !
 --------------------------                            --------------------------
 ! Name  Definition              Value          Derivative Info.                !
 --------------------------------------------------------------------------------
 ! R1    R(1,2)                  1.3673         calculate D2E/DX2 analytically  !
 ! R2    R(1,5)                  1.7358         calculate D2E/DX2 analytically  !
 ! R3    R(1,6)                  1.0809         calculate D2E/DX2 analytically  !
 ! R4    R(2,3)                  1.4295         calculate D2E/DX2 analytically  !
 ! R5    R(2,7)                  1.0841         calculate D2E/DX2 analytically  !
 ! R6    R(3,4)                  1.3673         calculate D2E/DX2 analytically  !
 ! R7    R(3,8)                  1.0841         calculate D2E/DX2 analytically  !
 ! R8    R(4,5)                  1.7358         calculate D2E/DX2 analytically  !
 ! R9    R(4,9)                  1.0809         calculate D2E/DX2 analytically  !
 ! A1    A(2,1,5)              111.4944         calculate D2E/DX2 analytically  !
 ! A2    A(2,1,6)              128.4731         calculate D2E/DX2 analytically  !
 ! A3    A(5,1,6)              120.0325         calculate D2E/DX2 analytically  !
 ! A4    A(1,2,3)              112.7494         calculate D2E/DX2 analytically  !
 ! A5    A(1,2,7)              123.2826         calculate D2E/DX2 analytically  !
 ! A6    A(3,2,7)              123.968          calculate D2E/DX2 analytically  !
 ! A7    A(2,3,4)              112.7494         calculate D2E/DX2 analytically  !
 ! A8    A(2,3,8)              123.968          calculate D2E/DX2 analytically  !
 ! A9    A(4,3,8)              123.2826         calculate D2E/DX2 analytically  !
 ! A10   A(3,4,5)              111.4944         calculate D2E/DX2 analytically  !
 ! A11   A(3,4,9)              128.4731         calculate D2E/DX2 analytically  !
 ! A12   A(5,4,9)              120.0325         calculate D2E/DX2 analytically  !
 ! A13   A(1,5,4)               91.5124         calculate D2E/DX2 analytically  !
 ! D1    D(5,1,2,3)              0.0            calculate D2E/DX2 analytically  !
 ! D2    D(5,1,2,7)            180.0            calculate D2E/DX2 analytically  !
 ! D3    D(6,1,2,3)            180.0            calculate D2E/DX2 analytically  !
 ! D4    D(6,1,2,7)              0.0            calculate D2E/DX2 analytically  !
 ! D5    D(2,1,5,4)              0.0            calculate D2E/DX2 analytically  !
 ! D6    D(6,1,5,4)            180.0            calculate D2E/DX2 analytically  !
 ! D7    D(1,2,3,4)              0.0            calculate D2E/DX2 analytically  !
 ! D8    D(1,2,3,8)            180.0            calculate D2E/DX2 analytically  !
 ! D9    D(7,2,3,4)            180.0            calculate D2E/DX2 analytically  !
 ! D10   D(7,2,3,8)              0.0            calculate D2E/DX2 analytically  !
 ! D11   D(2,3,4,5)              0.0            calculate D2E/DX2 analytically  !
 ! D12   D(2,3,4,9)            180.0            calculate D2E/DX2 analytically  !
 ! D13   D(8,3,4,5)            180.0            calculate D2E/DX2 analytically  !
 ! D14   D(8,3,4,9)              0.0            calculate D2E/DX2 analytically  !
 ! D15   D(3,4,5,1)              0.0            calculate D2E/DX2 analytically  !
 ! D16   D(9,4,5,1)            180.0            calculate D2E/DX2 analytically  !
 --------------------------------------------------------------------------------
 Maximum allowed force set to 1.00D+20.
 Trust Radius=3.00D-01 FncErr=1.00D-07 GrdErr=1.00D-07 EigMax=2.50D+02 EigMin=1.00D-04
 Number of steps in this run=      2 maximum allowed number of steps=      2.
 GradGradGradGradGradGradGradGradGradGradGradGradGradGradGradGradGradGrad

 Leave Link  103 at Sat Aug 10 16:33:47 2019, MaxMem=  4294967296 cpu:               0.4 elap:               0.1
                          Input orientation:                          
 ---------------------------------------------------------------------
 Center     Atomic      Atomic             Coordinates (Angstroms)
 Number     Number       Type             X           Y           Z
 ---------------------------------------------------------------------
      1          6           0        0.000000    1.243456   -0.011638
      2          6           0        0.000000    0.714733   -1.272536
      3          6           0        0.000000   -0.714733   -1.272536
      4          6           0        0.000000   -1.243456   -0.011638
      5         16           0        0.000000    0.000000    1.199420
      6          1           0        0.000000    2.283925    0.281289
      7          1           0        0.000000    1.320431   -2.171604
      8          1           0        0.000000   -1.320431   -2.171604
      9          1           0        0.000000   -2.283925    0.281289
 ---------------------------------------------------------------------
                    Distance matrix (angstroms):
                    1          2          3          4          5
     1  C    0.000000
     2  C    1.367264   0.000000
     3  C    2.329027   1.429466   0.000000
     4  C    2.486912   2.329027   1.367264   0.000000
     5  S    1.735755   2.573210   2.573210   1.735755   0.000000
     6  H    1.080917   2.208333   3.377325   3.539523   2.461560
     7  H    2.161337   1.084063   2.224908   3.352457   3.620406
     8  H    3.352457   2.224908   1.084063   2.161337   3.620406
     9  H    3.539523   3.377325   2.208333   1.080917   2.461560
                    6          7          8          9
     6  H    0.000000
     7  H    2.635338   0.000000
     8  H    4.359824   2.640862   0.000000
     9  H    4.567850   4.359824   2.635338   0.000000
 Stoichiometry    C4H4S
 Framework group  C2V[C2(S),SGV(C4H4)]
 Deg. of freedom     8
 Full point group                 C2V     NOp   4
 Largest Abelian subgroup         C2V     NOp   4
 Largest concise Abelian subgroup C2      NOp   2
                         Standard orientation:                         
 ---------------------------------------------------------------------
 Center     Atomic      Atomic             Coordinates (Angstroms)
 Number     Number       Type             X           Y           Z
 ---------------------------------------------------------------------
      1          6           0        0.000000    1.243456   -0.011638
      2          6           0        0.000000    0.714733   -1.272536
      3          6           0       -0.000000   -0.714733   -1.272536
      4          6           0       -0.000000   -1.243456   -0.011638
      5         16           0        0.000000    0.000000    1.199420
      6          1           0        0.000000    2.283925    0.281289
      7          1           0        0.000000    1.320431   -2.171604
      8          1           0       -0.000000   -1.320431   -2.171604
      9          1           0       -0.000000   -2.283925    0.281289
 ---------------------------------------------------------------------
 Rotational constants (GHZ):           7.9716234           5.3556685           3.2034544
 Standard basis: 6-31G(d,p) (6D, 7F)
 There are    40 symmetry adapted cartesian basis functions of A1  symmetry.
 There are    11 symmetry adapted cartesian basis functions of A2  symmetry.
 There are    14 symmetry adapted cartesian basis functions of B1  symmetry.
 There are    34 symmetry adapted cartesian basis functions of B2  symmetry.
 There are    40 symmetry adapted basis functions of A1  symmetry.
 There are    11 symmetry adapted basis functions of A2  symmetry.
 There are    14 symmetry adapted basis functions of B1  symmetry.
 There are    34 symmetry adapted basis functions of B2  symmetry.
    99 basis functions,   192 primitive gaussians,    99 cartesian basis functions
    22 alpha electrons       22 beta electrons
       nuclear repulsion energy       201.7177315484 Hartrees.
 NAtoms=    9 NActive=    9 NUniq=    5 SFac= 3.24D+00 NAtFMM=   60 NAOKFM=F Big=F
 Integral buffers will be    131072 words long.
 Raffenetti 2 integral format.
 Two-electron integral symmetry is turned on.
 One-electron integrals computed using PRISM.
 NBasis=    99 RedAO= T EigKep=  1.68D-03  NBF=    40    11    14    34
 NBsUse=    99 1.00D-06 EigRej= -1.00D+00 NBFU=    40    11    14    34
 ExpMin= 1.17D-01 ExpMax= 2.19D+04 ExpMxC= 3.30D+03 IAcc=3 IRadAn=         5 AccDes= 0.00D+00
 Harris functional with IExCor=  402 and IRadAn=       5 diagonalized for initial guess.
 HarFok:  IExCor=  402 AccDes= 0.00D+00 IRadAn=         5 IDoV= 1 UseB2=F ITyADJ=14
 ICtDFT=  3500011 ScaDFX=  1.000000  1.000000  1.000000  1.000000
 FoFCou: FMM=F IPFlag=           0 FMFlag=      100000 FMFlg1=           0
         NFxFlg=           0 DoJE=T BraDBF=F KetDBF=T FulRan=T
         wScrn=  0.000000 ICntrl=       500 IOpCl=  0 I1Cent=   200000004 NGrid=           0
         NMat0=    1 NMatS0=      1 NMatT0=    0 NMatD0=    1 NMtDS0=    0 NMtDT0=    0
 Petite list used in FoFCou.
 Initial guess orbital symmetries:
       Occupied  (A1) (A1) (B2) (A1) (B2) (A1) (B2) (A1) (B1) (A1)
                 (B2) (A1) (A1) (B2) (A1) (B2) (A1) (B2) (B1) (A1)
                 (A2) (B1)
       Virtual   (B1) (A2) (B2) (A1) (A1) (B2) (B2) (A1) (A1) (B2)
                 (A1) (B2) (A1) (B1) (B2) (A1) (A1) (B1) (B2) (A2)
                 (A1) (B1) (A2) (B2) (A1) (B2) (A1) (B1) (B2) (A2)
                 (A1) (B2) (A1) (B2) (A1) (A1) (B2) (B2) (B1) (B1)
                 (A1) (A2) (B2) (A2) (B1) (A1) (A1) (A1) (B2) (A2)
                 (B2) (A1) (B1) (B2) (A1) (A2) (B1) (A1) (B2) (B2)
                 (A2) (A1) (B2) (B1) (A2) (B2) (A1) (B2) (A1) (B2)
                 (A1) (B2) (A1) (A1) (B2) (A1) (B2)
 The electronic state of the initial guess is 1-A1.
 Keep R1 ints in memory in symmetry-blocked form, NReq=27027822.
 Requested convergence on RMS density matrix=1.00D-08 within 128 cycles.
 Requested convergence on MAX density matrix=1.00D-06.
 Requested convergence on             energy=1.00D-06.
 No special actions if energy rises.
 Integral accuracy reduced to 1.0D-05 until final iterations.
 Initial convergence to 1.0D-05 achieved.  Increase integral accuracy.
 SCF Done:  E(RB3LYP) =  -553.009299507     A.U. after   13 cycles
            NFock= 13  Conv=0.54D-08     -V/T= 2.0052
 DoSCS=F DFT=T ScalE2(SS,OS)=  1.000000  1.000000
 Range of M.O.s used for correlation:     1    99
 NBasis=    99 NAE=    22 NBE=    22 NFC=     0 NFV=     0
 NROrb=     99 NOA=    22 NOB=    22 NVA=    77 NVB=    77
 Symmetrizing basis deriv contribution to polar:
 IMax=3 JMax=2 DiffMx= 0.00D+00
 G2DrvN: will do    10 centers at a time, making    1 passes.
 Calling FoFCou, ICntrl=  3107 FMM=F I1Cent=   0 AccDes= 0.00D+00.
 End of G2Drv F.D. properties file   721 does not exist.
 End of G2Drv F.D. properties file   722 does not exist.
 End of G2Drv F.D. properties file   788 does not exist.
          IDoAtm=111111111
          Differentiating once with respect to electric field.
                with respect to dipole field.
          Differentiating once with respect to nuclear coordinates.
 Keep R1 ints in memory in symmetry-blocked form, NReq=26980355.
          There are    18 degrees of freedom in the 1st order CPHF.  IDoFFX=4 NUNeed=    18.
     18 vectors produced by pass  0 Test12= 9.41D-15 5.56D-09 XBig12= 8.61D+01 6.57D+00.
 AX will form    18 AO Fock derivatives at one time.
     18 vectors produced by pass  1 Test12= 9.41D-15 5.56D-09 XBig12= 2.34D+01 1.36D+00.
     18 vectors produced by pass  2 Test12= 9.41D-15 5.56D-09 XBig12= 3.68D-01 1.38D-01.
     18 vectors produced by pass  3 Test12= 9.41D-15 5.56D-09 XBig12= 2.05D-03 9.72D-03.
     18 vectors produced by pass  4 Test12= 9.41D-15 5.56D-09 XBig12= 7.51D-06 5.05D-04.
     18 vectors produced by pass  5 Test12= 9.41D-15 5.56D-09 XBig12= 1.08D-08 2.02D-05.
      7 vectors produced by pass  6 Test12= 9.41D-15 5.56D-09 XBig12= 1.30D-11 6.87D-07.
      3 vectors produced by pass  7 Test12= 9.41D-15 5.56D-09 XBig12= 1.45D-14 2.03D-08.
 InvSVY:  IOpt=1 It=  1 EMax= 3.55D-15
 Solved reduced A of dimension   118 with    18 vectors.
 Isotropic polarizability for W=    0.000000       50.35 Bohr**3.
 End of Minotr F.D. properties file   721 does not exist.
 End of Minotr F.D. properties file   722 does not exist.
 End of Minotr F.D. properties file   788 does not exist.

 **********************************************************************

            Population analysis using the SCF Density.

 **********************************************************************

 Orbital symmetries:
       Occupied  (A1) (A1) (B2) (A1) (B2) (A1) (B2) (A1) (B1) (A1)
                 (A1) (B2) (A1) (B2) (A1) (B2) (A1) (B2) (B1) (A1)
                 (B1) (A2)
       Virtual   (B1) (B2) (A2) (A1) (A1) (B2) (B2) (A1) (A1) (B2)
                 (A1) (B1) (A1) (B2) (B2) (A1) (A1) (B1) (A2) (B2)
                 (A1) (B1) (A2) (B2) (B1) (A1) (A2) (B2) (A1) (B2)
                 (A1) (B2) (A1) (B2) (A1) (A1) (B2) (B2) (A1) (B1)
                 (B1) (A2) (B2) (A2) (B1) (A1) (A1) (A1) (B2) (A2)
                 (B2) (A1) (B1) (B2) (A1) (B1) (A2) (A1) (B2) (B2)
                 (A2) (A1) (B2) (B1) (A2) (B2) (A1) (B2) (A1) (B2)
                 (A1) (B2) (A1) (B2) (A1) (A1) (B2)
 The electronic state is 1-A1.
 Alpha  occ. eigenvalues --  -88.90531 -10.21180 -10.21180 -10.19149 -10.19106
 Alpha  occ. eigenvalues --   -7.96667  -5.93064  -5.92694  -5.92384  -0.87325
 Alpha  occ. eigenvalues --   -0.72960  -0.72003  -0.56135  -0.54918  -0.51071
 Alpha  occ. eigenvalues --   -0.41089  -0.38969  -0.38361  -0.37359  -0.34066
 Alpha  occ. eigenvalues --   -0.24857  -0.23330
 Alpha virt. eigenvalues --   -0.00843   0.03541   0.07023   0.10228   0.10635
 Alpha virt. eigenvalues --    0.15338   0.17516   0.17814   0.24704   0.29746
 Alpha virt. eigenvalues --    0.30727   0.37136   0.39122   0.41572   0.44821
 Alpha virt. eigenvalues --    0.47640   0.53329   0.55010   0.57700   0.59168
 Alpha virt. eigenvalues --    0.61497   0.64576   0.65300   0.78261   0.78899
 Alpha virt. eigenvalues --    0.80012   0.80255   0.82144   0.83499   0.84408
 Alpha virt. eigenvalues --    0.89423   0.91940   0.97714   1.00557   1.05241
 Alpha virt. eigenvalues --    1.08397   1.11562   1.15492   1.31326   1.31693
 Alpha virt. eigenvalues --    1.35215   1.40913   1.45887   1.67021   1.73358
 Alpha virt. eigenvalues --    1.77417   1.84189   1.89310   1.95044   2.00242
 Alpha virt. eigenvalues --    2.02222   2.08515   2.16016   2.18623   2.26586
 Alpha virt. eigenvalues --    2.36787   2.37248   2.42694   2.44705   2.46211
 Alpha virt. eigenvalues --    2.48387   2.57288   2.58703   2.58967   2.73046
 Alpha virt. eigenvalues --    2.82965   2.87993   3.17129   3.21195   3.27256
 Alpha virt. eigenvalues --    3.44428   3.74561   3.96056   4.16500   4.16803
 Alpha virt. eigenvalues --    4.44723   4.66024
          Condensed to atoms (all electrons):
               1          2          3          4          5          6
     1  C    5.170641   0.589242  -0.051305  -0.064304   0.322056   0.372001
     2  C    0.589242   4.754259   0.528690  -0.051305  -0.086167  -0.020558
     3  C   -0.051305   0.528690   4.754259   0.589242  -0.086167   0.004645
     4  C   -0.064304  -0.051305   0.589242   5.170641   0.322056   0.002700
     5  S    0.322056  -0.086167  -0.086167   0.322056  15.342461  -0.039750
     6  H    0.372001  -0.020558   0.004645   0.002700  -0.039750   0.556303
     7  H   -0.049311   0.373796  -0.040647   0.006264   0.007364  -0.003995
     8  H    0.006264  -0.040647   0.373796  -0.049311   0.007364  -0.000129
     9  H    0.002700   0.004645  -0.020558   0.372001  -0.039750  -0.000072
               7          8          9
     1  C   -0.049311   0.006264   0.002700
     2  C    0.373796  -0.040647   0.004645
     3  C   -0.040647   0.373796  -0.020558
     4  C    0.006264  -0.049311   0.372001
     5  S    0.007364   0.007364  -0.039750
     6  H   -0.003995  -0.000129  -0.000072
     7  H    0.613723  -0.002882  -0.000129
     8  H   -0.002882   0.613723  -0.003995
     9  H   -0.000129  -0.003995   0.556303
 Mulliken charges:
               1
     1  C   -0.297983
     2  C   -0.051955
     3  C   -0.051955
     4  C   -0.297983
     5  S    0.250531
     6  H    0.128855
     7  H    0.095817
     8  H    0.095817
     9  H    0.128855
 Sum of Mulliken charges =  -0.00000
 Mulliken charges with hydrogens summed into heavy atoms:
               1
     1  C   -0.169128
     2  C    0.043863
     3  C    0.043863
     4  C   -0.169128
     5  S    0.250531
 APT charges:
               1
     1  C   -0.003359
     2  C   -0.085936
     3  C   -0.085936
     4  C   -0.003359
     5  S   -0.053600
     6  H    0.070791
     7  H    0.045303
     8  H    0.045303
     9  H    0.070791
 Sum of APT charges =  -0.00000
 APT charges with hydrogens summed into heavy atoms:
               1
     1  C    0.067432
     2  C   -0.040633
     3  C   -0.040633
     4  C    0.067432
     5  S   -0.053600
 Electronic spatial extent (au):  <R**2>=            401.6506
 Charge=              0.0000 electrons
 Dipole moment (field-independent basis, Debye):
    X=             -0.0000    Y=              0.0000    Z=             -0.6224  Tot=              0.6224
 Quadrupole moment (field-independent basis, Debye-Ang):
   XX=            -39.4121   YY=            -31.0184   ZZ=            -34.4144
   XY=              0.0000   XZ=              0.0000   YZ=             -0.0000
 Traceless Quadrupole moment (field-independent basis, Debye-Ang):
   XX=             -4.4638   YY=              3.9299   ZZ=              0.5339
   XY=              0.0000   XZ=              0.0000   YZ=             -0.0000
 Octapole moment (field-independent basis, Debye-Ang**2):
  XXX=              0.0000  YYY=             -0.0000  ZZZ=             -5.6880  XYY=              0.0000
  XXY=             -0.0000  XXZ=              1.4628  XZZ=              0.0000  YZZ=              0.0000
  YYZ=              1.9751  XYZ=             -0.0000
 Hexadecapole moment (field-independent basis, Debye-Ang**3):
 XXXX=            -44.7225 YYYY=           -193.5170 ZZZZ=           -275.4261 XXXY=             -0.0000
 XXXZ=             -0.0000 YYYX=             -0.0000 YYYZ=              0.0000 ZZZX=             -0.0000
 ZZZY=              0.0000 XXYY=            -48.9237 XXZZ=            -59.7348 YYZZ=            -76.5945
 XXYZ=             -0.0000 YYXZ=             -0.0000 ZZXY=             -0.0000
 N-N= 2.017177315484D+02 E-N=-1.707854363531D+03  KE= 5.501708628769D+02
 Symmetry A1   KE= 3.969709986389D+02
 Symmetry A2   KE= 2.319566014194D+00
 Symmetry B1   KE= 4.045672174113D+01
 Symmetry B2   KE= 1.104235764827D+02
  Exact polarizability:  24.175  -0.000  60.360  -0.000  -0.000  66.516
 Approx polarizability:  37.071   0.000 104.074   0.000  -0.000 118.816
 Calling FoFJK, ICntrl=    100127 FMM=F ISym2X=1 I1Cent= 0 IOpClX= 0 NMat=1 NMatS=1 NMatT=0.
 Full mass-weighted force constant matrix:
 Low frequencies ---   -0.0024   -0.0019    0.0022    6.0702    6.5155    7.5883
 Low frequencies ---  453.5712  575.5129  612.3868
 Diagonal vibrational polarizability:
        5.3127820       0.2919453       1.2420940
 Harmonic frequencies (cm**-1), IR intensities (KM/Mole), Raman scattering
 activities (A**4/AMU), depolarization ratios for plane and unpolarized
 incident light, reduced masses (AMU), force constants (mDyne/A),
 and normal coordinates:
                           1         2         3         4         5
                          B1        A2        A1        A2        B1
       Frequencies ---   453.5712  575.5129  612.3868  685.9035  729.7672
    Reduced masses ---     4.9667    3.1122    9.8987    1.2709    1.1097
   Force constants ---     0.6020    0.6073    2.1872    0.3523    0.3482
    IR Intensities ---     0.8113    0.0000    0.3881    0.0000  102.6840
 Coord Atom Element:
   1     1     6          0.34699  -0.19584  -0.00000  -0.06790  -0.04880
   2     1     6          0.00000   0.00000  -0.18858   0.00000  -0.00000
   3     1     6          0.00000  -0.00000  -0.20859  -0.00000   0.00000
   1     2     6         -0.15416   0.23952   0.00000  -0.08578  -0.04630
   2     2     6         -0.00000  -0.00000  -0.00424   0.00000  -0.00000
   3     2     6          0.00000   0.00000  -0.29183  -0.00000   0.00000
   1     3     6         -0.15416  -0.23952  -0.00000   0.08578  -0.04630
   2     3     6         -0.00000   0.00000   0.00424  -0.00000  -0.00000
   3     3     6         -0.00000   0.00000  -0.29183  -0.00000  -0.00000
   1     4     6          0.34699   0.19584   0.00000   0.06790  -0.04880
   2     4     6          0.00000   0.00000   0.18858  -0.00000   0.00000
   3     4     6         -0.00000  -0.00000  -0.20859  -0.00000  -0.00000
   1     5    16         -0.15967   0.00000   0.00000   0.00000   0.00872
   2     5    16          0.00000  -0.00000  -0.00000   0.00000   0.00000
   3     5    16          0.00000  -0.00000   0.41293   0.00000   0.00000
   1     6     1          0.51524   0.00949  -0.00000   0.68723   0.52361
   2     6     1          0.00000   0.00000  -0.12787   0.00000   0.00000
   3     6     1          0.00000  -0.00000  -0.41561   0.00000  -0.00000
   1     7     1         -0.27859   0.63576  -0.00000   0.12549   0.47039
   2     7     1         -0.00000  -0.00000   0.17450   0.00000  -0.00000
   3     7     1          0.00000   0.00000  -0.17594  -0.00000   0.00000
   1     8     1         -0.27859  -0.63576  -0.00000  -0.12549   0.47039
   2     8     1         -0.00000   0.00000  -0.17450  -0.00000  -0.00000
   3     8     1         -0.00000   0.00000  -0.17594  -0.00000  -0.00000
   1     9     1          0.51524  -0.00949   0.00000  -0.68723   0.52361
   2     9     1          0.00000  -0.00000   0.12787  -0.00000   0.00000
   3     9     1         -0.00000  -0.00000  -0.41561   0.00000  -0.00000
                           6         7         8         9        10
                          B2        A1        B2        B1        A2
       Frequencies ---   747.8524  838.1793  878.2629  880.5840  921.2714
    Reduced masses ---     7.0993    4.3255    4.4094    1.2247    1.3183
   Force constants ---     2.3394    1.7904    2.0039    0.5595    0.6592
    IR Intensities ---     0.0604   24.0311    0.9605    0.5142    0.0000
 Coord Atom Element:
   1     1     6          0.00000  -0.00000  -0.00000   0.06396   0.04183
   2     1     6         -0.13376   0.35006   0.29373   0.00000   0.00000
   3     1     6          0.25406  -0.12040   0.00781  -0.00000   0.00000
   1     2     6          0.00000   0.00000   0.00000  -0.07563  -0.11124
   2     2     6         -0.18318   0.03290  -0.15755   0.00000   0.00000
   3     2     6          0.28827   0.04011   0.15939  -0.00000  -0.00000
   1     3     6          0.00000  -0.00000   0.00000  -0.07563   0.11124
   2     3     6         -0.18318  -0.03290  -0.15755   0.00000  -0.00000
   3     3     6         -0.28827   0.04011  -0.15939   0.00000  -0.00000
   1     4     6          0.00000  -0.00000  -0.00000   0.06396  -0.04183
   2     4     6         -0.13376  -0.35006   0.29373  -0.00000  -0.00000
   3     4     6         -0.25406  -0.12040  -0.00781  -0.00000   0.00000
   1     5    16         -0.00000  -0.00000   0.00000   0.00610  -0.00000
   2     5    16          0.23531  -0.00000  -0.11356  -0.00000   0.00000
   3     5    16         -0.00000   0.08911  -0.00000   0.00000   0.00000
   1     6     1         -0.00000   0.00000  -0.00000  -0.47353  -0.23589
   2     6     1         -0.08083   0.40738   0.40319   0.00000   0.00000
   3     6     1          0.04763  -0.27470  -0.36408  -0.00000   0.00000
   1     7     1         -0.00000  -0.00000  -0.00000   0.51569   0.65592
   2     7     1          0.12202  -0.28542  -0.22347  -0.00000   0.00000
   3     7     1          0.49953  -0.18281   0.10922  -0.00000  -0.00000
   1     8     1         -0.00000  -0.00000  -0.00000   0.51569  -0.65592
   2     8     1          0.12202   0.28542  -0.22347  -0.00000  -0.00000
   3     8     1         -0.49953  -0.18281  -0.10922  -0.00000  -0.00000
   1     9     1         -0.00000   0.00000  -0.00000  -0.47353   0.23589
   2     9     1         -0.08083  -0.40738   0.40319  -0.00000  -0.00000
   3     9     1         -0.04763  -0.27470   0.36408  -0.00000   0.00000
                          11        12        13        14        15
                          A1        A1        B2        B2        A1
       Frequencies ---  1059.2644 1112.7316 1115.2889 1283.2060 1408.2154
    Reduced masses ---     1.9259    1.0844    1.1468    1.3656    2.1463
   Force constants ---     1.2732    0.7910    0.8405    1.3248    2.5077
    IR Intensities ---     1.6158    4.1922    3.3563   10.2751    0.3929
 Coord Atom Element:
   1     1     6         -0.00000  -0.00000   0.00000   0.00000  -0.00000
   2     1     6          0.07144   0.01131   0.05055   0.03913  -0.01878
   3     1     6          0.02787   0.01893   0.04603  -0.10493   0.17194
   1     2     6          0.00000   0.00000  -0.00000  -0.00000   0.00000
   2     2     6          0.17028  -0.00698  -0.03276  -0.06078   0.12225
   3     2     6         -0.08255  -0.05172  -0.01693   0.00382  -0.08130
   1     3     6         -0.00000  -0.00000   0.00000  -0.00000  -0.00000
   2     3     6         -0.17028   0.00698  -0.03276  -0.06078  -0.12225
   3     3     6         -0.08255  -0.05172   0.01693  -0.00382  -0.08130
   1     4     6          0.00000   0.00000   0.00000   0.00000   0.00000
   2     4     6         -0.07144  -0.01131   0.05055   0.03913   0.01878
   3     4     6          0.02787   0.01893  -0.04603   0.10493   0.17194
   1     5    16         -0.00000   0.00000   0.00000   0.00000   0.00000
   2     5    16         -0.00000   0.00000   0.01431  -0.00398   0.00000
   3     5    16          0.00709   0.01390  -0.00000   0.00000  -0.01500
   1     6     1         -0.00000  -0.00000  -0.00000  -0.00000   0.00000
   2     6     1         -0.02256  -0.11677  -0.08777  -0.10977   0.18312
   3     6     1          0.39828   0.48355   0.55565   0.41673  -0.50195
   1     7     1         -0.00000  -0.00000   0.00000   0.00000  -0.00000
   2     7     1          0.52864  -0.38850  -0.35111   0.43058  -0.21845
   3     7     1          0.14032  -0.31354  -0.23266   0.33560  -0.33942
   1     8     1          0.00000   0.00000   0.00000   0.00000   0.00000
   2     8     1         -0.52864   0.38850  -0.35111   0.43058   0.21845
   3     8     1          0.14032  -0.31354   0.23266  -0.33560  -0.33942
   1     9     1          0.00000   0.00000  -0.00000  -0.00000  -0.00000
   2     9     1          0.02256   0.11677  -0.08777  -0.10977  -0.18312
   3     9     1          0.39828   0.48355  -0.55565  -0.41673  -0.50195
                          16        17        18        19        20
                          A1        B2        B2        A1        B2
       Frequencies ---  1468.0637 1576.7584 3214.3191 3227.8305 3266.5123
    Reduced masses ---     6.1119    4.6641    1.0877    1.0943    1.0953
   Force constants ---     7.7610    6.8320    6.6211    6.7174    6.8859
    IR Intensities ---    11.2059    0.0109    5.1947    5.5000    0.5308
 Coord Atom Element:
   1     1     6          0.00000  -0.00000  -0.00000   0.00000   0.00000
   2     1     6         -0.14591  -0.07232  -0.00860  -0.01300  -0.05842
   3     1     6         -0.20941  -0.24138  -0.00111  -0.00152  -0.01973
   1     2     6         -0.00000   0.00000   0.00000  -0.00000  -0.00000
   2     2     6          0.33288   0.13391   0.03163   0.03559  -0.00347
   3     2     6          0.23707   0.29135  -0.05057  -0.04995   0.01285
   1     3     6          0.00000   0.00000   0.00000   0.00000  -0.00000
   2     3     6         -0.33288   0.13391   0.03163  -0.03559  -0.00347
   3     3     6          0.23707  -0.29135   0.05057  -0.04995  -0.01285
   1     4     6         -0.00000  -0.00000  -0.00000  -0.00000   0.00000
   2     4     6          0.14591  -0.07232  -0.00860   0.01300  -0.05842
   3     4     6         -0.20941   0.24138   0.00111  -0.00152   0.01973
   1     5    16         -0.00000   0.00000   0.00000  -0.00000   0.00000
   2     5    16         -0.00000  -0.00021  -0.00032  -0.00000   0.00036
   3     5    16         -0.00360  -0.00000  -0.00000   0.00021   0.00000
   1     6     1          0.00000   0.00000  -0.00000   0.00000  -0.00000
   2     6     1         -0.23317  -0.21828   0.11644   0.16574   0.66838
   3     6     1         -0.02968   0.11416   0.03087   0.04457   0.18900
   1     7     1          0.00000  -0.00000  -0.00000   0.00000   0.00000
   2     7     1         -0.39213  -0.51171  -0.38555  -0.38400   0.06278
   3     7     1         -0.24254  -0.10565   0.57725   0.56494  -0.09814
   1     8     1         -0.00000  -0.00000  -0.00000  -0.00000   0.00000
   2     8     1          0.39213  -0.51171  -0.38555   0.38400   0.06278
   3     8     1         -0.24254   0.10565  -0.57725   0.56494   0.09814
   1     9     1         -0.00000   0.00000  -0.00000  -0.00000  -0.00000
   2     9     1          0.23317  -0.21828   0.11644  -0.16574   0.66838
   3     9     1         -0.02968  -0.11416  -0.03087   0.04457  -0.18900
                          21
                          A1
       Frequencies ---  3268.6228
    Reduced masses ---     1.0996
   Force constants ---     6.9219
    IR Intensities ---     1.7444
 Coord Atom Element:
   1     1     6         -0.00000
   2     1     6         -0.05908
   3     1     6         -0.01909
   1     2     6          0.00000
   2     2     6         -0.00841
   3     2     6          0.01581
   1     3     6         -0.00000
   2     3     6          0.00841
   3     3     6          0.01581
   1     4     6          0.00000
   2     4     6          0.05908
   3     4     6         -0.01909
   1     5    16         -0.00000
   2     5    16         -0.00000
   3     5    16         -0.00062
   1     6     1         -0.00000
   2     6     1          0.65792
   3     6     1          0.18750
   1     7     1         -0.00000
   2     7     1          0.09248
   3     7     1         -0.13878
   1     8     1          0.00000
   2     8     1         -0.09248
   3     8     1         -0.13878
   1     9     1          0.00000
   2     9     1         -0.65792
   3     9     1          0.18750
 Harmonic frequencies (cm**-1), IR intensities (KM/Mole), Raman scattering
 activities (A**4/AMU), depolarization ratios for plane and unpolarized
 incident light, reduced masses (AMU), force constants (mDyne/A),
 and normal coordinates:
                      1                      2                      3
                     B1                     A2                     A1
 Frequencies --    453.5712               575.5129               612.3868
 Red. masses --      4.9667                 3.1122                 9.8987
 Frc consts  --      0.6020                 0.6073                 2.1872
 IR Inten    --      0.8113                 0.0000                 0.3881
  Atom  AN      X      Y      Z        X      Y      Z        X      Y      Z
     1   6     0.35   0.00   0.00    -0.20   0.00  -0.00    -0.00  -0.19  -0.21
     2   6    -0.15  -0.00   0.00     0.24  -0.00   0.00     0.00  -0.00  -0.29
     3   6    -0.15  -0.00  -0.00    -0.24   0.00   0.00    -0.00   0.00  -0.29
     4   6     0.35   0.00  -0.00     0.20   0.00  -0.00     0.00   0.19  -0.21
     5  16    -0.16   0.00   0.00     0.00  -0.00  -0.00     0.00  -0.00   0.41
     6   1     0.52   0.00   0.00     0.01   0.00  -0.00    -0.00  -0.13  -0.42
     7   1    -0.28  -0.00   0.00     0.64  -0.00   0.00    -0.00   0.17  -0.18
     8   1    -0.28  -0.00  -0.00    -0.64   0.00   0.00    -0.00  -0.17  -0.18
     9   1     0.52   0.00  -0.00    -0.01  -0.00  -0.00     0.00   0.13  -0.42
                      4                      5                      6
                     A2                     B1                     B2
 Frequencies --    685.9035               729.7672               747.8524
 Red. masses --      1.2709                 1.1097                 7.0993
 Frc consts  --      0.3523                 0.3482                 2.3394
 IR Inten    --      0.0000               102.6840                 0.0604
  Atom  AN      X      Y      Z        X      Y      Z        X      Y      Z
     1   6    -0.07   0.00  -0.00    -0.05  -0.00   0.00     0.00  -0.13   0.25
     2   6    -0.09   0.00  -0.00    -0.05  -0.00   0.00     0.00  -0.18   0.29
     3   6     0.09  -0.00  -0.00    -0.05  -0.00  -0.00     0.00  -0.18  -0.29
     4   6     0.07  -0.00  -0.00    -0.05   0.00  -0.00     0.00  -0.13  -0.25
     5  16     0.00   0.00   0.00     0.01   0.00   0.00    -0.00   0.24  -0.00
     6   1     0.69   0.00   0.00     0.52   0.00  -0.00    -0.00  -0.08   0.05
     7   1     0.13   0.00  -0.00     0.47  -0.00   0.00    -0.00   0.12   0.50
     8   1    -0.13  -0.00  -0.00     0.47  -0.00  -0.00    -0.00   0.12  -0.50
     9   1    -0.69  -0.00   0.00     0.52   0.00  -0.00    -0.00  -0.08  -0.05
                      7                      8                      9
                     A1                     B2                     B1
 Frequencies --    838.1793               878.2629               880.5840
 Red. masses --      4.3255                 4.4094                 1.2247
 Frc consts  --      1.7904                 2.0039                 0.5595
 IR Inten    --     24.0311                 0.9605                 0.5142
  Atom  AN      X      Y      Z        X      Y      Z        X      Y      Z
     1   6    -0.00   0.35  -0.12    -0.00   0.29   0.01     0.06   0.00  -0.00
     2   6     0.00   0.03   0.04     0.00  -0.16   0.16    -0.08   0.00  -0.00
     3   6    -0.00  -0.03   0.04     0.00  -0.16  -0.16    -0.08   0.00   0.00
     4   6    -0.00  -0.35  -0.12    -0.00   0.29  -0.01     0.06  -0.00  -0.00
     5  16    -0.00  -0.00   0.09     0.00  -0.11  -0.00     0.01  -0.00   0.00
     6   1     0.00   0.41  -0.27    -0.00   0.40  -0.36    -0.47   0.00  -0.00
     7   1    -0.00  -0.29  -0.18    -0.00  -0.22   0.11     0.52  -0.00  -0.00
     8   1    -0.00   0.29  -0.18    -0.00  -0.22  -0.11     0.52  -0.00  -0.00
     9   1     0.00  -0.41  -0.27    -0.00   0.40   0.36    -0.47  -0.00  -0.00
                     10                     11                     12
                     A2                     A1                     A1
 Frequencies --    921.2714              1059.2644              1112.7316
 Red. masses --      1.3183                 1.9259                 1.0844
 Frc consts  --      0.6592                 1.2732                 0.7910
 IR Inten    --      0.0000                 1.6158                 4.1922
  Atom  AN      X      Y      Z        X      Y      Z        X      Y      Z
     1   6     0.04   0.00   0.00    -0.00   0.07   0.03    -0.00   0.01   0.02
     2   6    -0.11   0.00  -0.00     0.00   0.17  -0.08     0.00  -0.01  -0.05
     3   6     0.11  -0.00  -0.00    -0.00  -0.17  -0.08    -0.00   0.01  -0.05
     4   6    -0.04  -0.00   0.00     0.00  -0.07   0.03     0.00  -0.01   0.02
     5  16    -0.00   0.00   0.00    -0.00  -0.00   0.01     0.00   0.00   0.01
     6   1    -0.24   0.00   0.00    -0.00  -0.02   0.40    -0.00  -0.12   0.48
     7   1     0.66   0.00  -0.00    -0.00   0.53   0.14    -0.00  -0.39  -0.31
     8   1    -0.66  -0.00  -0.00     0.00  -0.53   0.14     0.00   0.39  -0.31
     9   1     0.24  -0.00   0.00     0.00   0.02   0.40     0.00   0.12   0.48
                     13                     14                     15
                     B2                     B2                     A1
 Frequencies --   1115.2889              1283.2060              1408.2154
 Red. masses --      1.1468                 1.3656                 2.1463
 Frc consts  --      0.8405                 1.3248                 2.5077
 IR Inten    --      3.3563                10.2751                 0.3929
  Atom  AN      X      Y      Z        X      Y      Z        X      Y      Z
     1   6     0.00   0.05   0.05     0.00   0.04  -0.10    -0.00  -0.02   0.17
     2   6    -0.00  -0.03  -0.02    -0.00  -0.06   0.00     0.00   0.12  -0.08
     3   6     0.00  -0.03   0.02    -0.00  -0.06  -0.00    -0.00  -0.12  -0.08
     4   6     0.00   0.05  -0.05     0.00   0.04   0.10     0.00   0.02   0.17
     5  16     0.00   0.01  -0.00     0.00  -0.00   0.00     0.00   0.00  -0.01
     6   1    -0.00  -0.09   0.56    -0.00  -0.11   0.42     0.00   0.18  -0.50
     7   1     0.00  -0.35  -0.23     0.00   0.43   0.34    -0.00  -0.22  -0.34
     8   1     0.00  -0.35   0.23     0.00   0.43  -0.34     0.00   0.22  -0.34
     9   1    -0.00  -0.09  -0.56    -0.00  -0.11  -0.42    -0.00  -0.18  -0.50
                     16                     17                     18
                     A1                     B2                     B2
 Frequencies --   1468.0637              1576.7584              3214.3191
 Red. masses --      6.1119                 4.6641                 1.0877
 Frc consts  --      7.7610                 6.8320                 6.6211
 IR Inten    --     11.2059                 0.0109                 5.1947
  Atom  AN      X      Y      Z        X      Y      Z        X      Y      Z
     1   6     0.00  -0.15  -0.21    -0.00  -0.07  -0.24    -0.00  -0.01  -0.00
     2   6    -0.00   0.33   0.24     0.00   0.13   0.29     0.00   0.03  -0.05
     3   6     0.00  -0.33   0.24     0.00   0.13  -0.29     0.00   0.03   0.05
     4   6    -0.00   0.15  -0.21    -0.00  -0.07   0.24    -0.00  -0.01   0.00
     5  16    -0.00  -0.00  -0.00     0.00  -0.00  -0.00     0.00  -0.00  -0.00
     6   1     0.00  -0.23  -0.03     0.00  -0.22   0.11    -0.00   0.12   0.03
     7   1     0.00  -0.39  -0.24    -0.00  -0.51  -0.11    -0.00  -0.39   0.58
     8   1    -0.00   0.39  -0.24    -0.00  -0.51   0.11    -0.00  -0.39  -0.58
     9   1    -0.00   0.23  -0.03     0.00  -0.22  -0.11    -0.00   0.12  -0.03
                     19                     20                     21
                     A1                     B2                     A1
 Frequencies --   3227.8305              3266.5123              3268.6228
 Red. masses --      1.0943                 1.0953                 1.0996
 Frc consts  --      6.7174                 6.8859                 6.9219
 IR Inten    --      5.5000                 0.5308                 1.7444
  Atom  AN      X      Y      Z        X      Y      Z        X      Y      Z
     1   6     0.00  -0.01  -0.00     0.00  -0.06  -0.02    -0.00  -0.06  -0.02
     2   6    -0.00   0.04  -0.05    -0.00  -0.00   0.01     0.00  -0.01   0.02
     3   6     0.00  -0.04  -0.05    -0.00  -0.00  -0.01    -0.00   0.01   0.02
     4   6    -0.00   0.01  -0.00     0.00  -0.06   0.02     0.00   0.06  -0.02
     5  16    -0.00  -0.00   0.00     0.00   0.00   0.00    -0.00  -0.00  -0.00
     6   1     0.00   0.17   0.04    -0.00   0.67   0.19    -0.00   0.66   0.19
     7   1     0.00  -0.38   0.56     0.00   0.06  -0.10    -0.00   0.09  -0.14
     8   1    -0.00   0.38   0.56     0.00   0.06   0.10     0.00  -0.09  -0.14
     9   1    -0.00  -0.17   0.04    -0.00   0.67  -0.19     0.00  -0.66   0.19

 -------------------
 - Thermochemistry -
 -------------------
 Temperature   298.150 Kelvin.  Pressure   1.00000 Atm.
 Atom     1 has atomic number  6 and mass  12.00000
 Atom     2 has atomic number  6 and mass  12.00000
 Atom     3 has atomic number  6 and mass  12.00000
 Atom     4 has atomic number  6 and mass  12.00000
 Atom     5 has atomic number 16 and mass  31.97207
 Atom     6 has atomic number  1 and mass   1.00783
 Atom     7 has atomic number  1 and mass   1.00783
 Atom     8 has atomic number  1 and mass   1.00783
 Atom     9 has atomic number  1 and mass   1.00783
 Molecular mass:    84.00337 amu.
 Principal axes and moments of inertia in atomic units:
                           1         2         3
     Eigenvalues --   226.39569 336.97777 563.37346
           X            0.00000   0.00000   1.00000
           Y            0.00000   1.00000  -0.00000
           Z            1.00000  -0.00000   0.00000
 This molecule is an asymmetric top.
 Rotational symmetry number  2.
 Rotational temperatures (Kelvin)      0.38258     0.25703     0.15374
 Rotational constants (GHZ):           7.97162     5.35567     3.20345
 Zero-point vibrational energy     175397.1 (Joules/Mol)
                                   41.92091 (Kcal/Mol)
 Warning -- explicit consideration of   3 degrees of freedom as
           vibrations may cause significant error
 Vibrational temperatures:    652.59   828.03   881.09   986.86  1049.97
          (Kelvin)           1075.99  1205.95  1263.62  1266.96  1325.50
                             1524.05  1600.97  1604.65  1846.25  2026.11
                             2112.22  2268.60  4624.69  4644.13  4699.78
                             4702.82
 
 Zero-point correction=                           0.066805 (Hartree/Particle)
 Thermal correction to Energy=                    0.070880
 Thermal correction to Enthalpy=                  0.071824
 Thermal correction to Gibbs Free Energy=         0.040220
 Sum of electronic and zero-point Energies=           -552.942494
 Sum of electronic and thermal Energies=              -552.938420
 Sum of electronic and thermal Enthalpies=            -552.937476
 Sum of electronic and thermal Free Energies=         -552.969079
 
                     E (Thermal)             CV                S
                      KCal/Mol        Cal/Mol-Kelvin    Cal/Mol-Kelvin
 Total                   44.478             15.147             66.515
 Electronic               0.000              0.000              0.000
 Translational            0.889              2.981             39.198
 Rotational               0.889              2.981             23.889
 Vibrational             42.700              9.186              3.427
 Vibration     1          0.812              1.353              0.785
 Vibration     2          0.932              1.084              0.494
 Vibration     3          0.972              1.006              0.429
                       Q            Log10(Q)             Ln(Q)
 Total Bot       0.316158D-18        -18.500096        -42.598045
 Total V=0       0.169102D+13         12.228148         28.156350
 Vib (Bot)       0.281551D-30        -30.550444        -70.344996
 Vib (Bot)    1  0.376984D+00         -0.423677         -0.975553
 Vib (Bot)    2  0.265965D+00         -0.575176         -1.324392
 Vib (Bot)    3  0.240721D+00         -0.618487         -1.424118
 Vib (V=0)       0.150591D+01          0.177800          0.409400
 Vib (V=0)    1  0.112619D+01          0.051613          0.118842
 Vib (V=0)    2  0.106634D+01          0.027894          0.064229
 Vib (V=0)    3  0.105493D+01          0.023223          0.053474
 Electronic      0.100000D+01          0.000000          0.000000
 Translational   0.302621D+08          7.480899         17.225406
 Rotational      0.371064D+05          4.569449         10.521544
                           ----------------------------
                           ! Normal Mode     1        !
 --------------------------                            --------------------------
 ! Name  Definition              Value          Relative Weight (%)             !
 --------------------------------------------------------------------------------
 ! R1    R(1,2)                  0.0                     0.0                    !
 ! R2    R(1,5)                  0.0                     0.0                    !
 ! R3    R(1,6)                  0.0                     0.0                    !
 ! R4    R(2,3)                  0.0                     0.0                    !
 ! R5    R(2,7)                  0.0                     0.0                    !
 ! R6    R(3,4)                  0.0                     0.0                    !
 ! R7    R(3,8)                  0.0                     0.0                    !
 ! R8    R(4,5)                  0.0                     0.0                    !
 ! R9    R(4,9)                  0.0                     0.0                    !
 ! A1    A(2,1,5)                0.0                     0.0                    !
 ! A2    A(2,1,6)                0.0                     0.0                    !
 ! A3    A(5,1,6)                0.0                     0.0                    !
 ! A4    A(1,2,3)                0.0                     0.0                    !
 ! A5    A(1,2,7)                0.0                     0.0                    !
 ! A6    A(3,2,7)                0.0                     0.0                    !
 ! A7    A(2,3,4)                0.0                     0.0                    !
 ! A8    A(2,3,8)                0.0                     0.0                    !
 ! A9    A(4,3,8)                0.0                     0.0                    !
 ! A10   A(3,4,5)                0.0                     0.0                    !
 ! A11   A(3,4,9)                0.0                     0.0                    !
 ! A12   A(5,4,9)                0.0                     0.0                    !
 ! A13   A(1,5,4)                0.0                     0.0                    !
 ! D1    D(5,1,2,3)             -0.3237                 11.8                    !
 ! D2    D(5,1,2,7)             -0.1877                  6.8                    !
 ! D3    D(6,1,2,3)             -0.0324                  1.2                    !
 ! D4    D(6,1,2,7)              0.1036                  3.8                    !
 ! D5    D(2,1,5,4)              0.4279                 15.5                    !
 ! D6    D(6,1,5,4)              0.1644                  6.0                    !
 ! D7    D(1,2,3,4)              0.0                     0.0                    !
 ! D8    D(1,2,3,8)              0.1371                  5.0                    !
 ! D9    D(7,2,3,4)             -0.1371                  5.0                    !
 ! D10   D(7,2,3,8)              0.0                     0.0                    !
 ! D11   D(2,3,4,5)              0.3237                 11.8                    !
 ! D12   D(2,3,4,9)              0.0324                  1.2                    !
 ! D13   D(8,3,4,5)              0.1877                  6.8                    !
 ! D14   D(8,3,4,9)             -0.1036                  3.8                    !
 ! D15   D(3,4,5,1)             -0.4279                 15.5                    !
 ! D16   D(9,4,5,1)             -0.1644                  6.0                    !
 --------------------------------------------------------------------------------
                           ----------------------------
                           ! Normal Mode     2        !
 --------------------------                            --------------------------
 ! Name  Definition              Value          Relative Weight (%)             !
 --------------------------------------------------------------------------------
 ! R1    R(1,2)                  0.0                     0.0                    !
 ! R2    R(1,5)                  0.0                     0.0                    !
 ! R3    R(1,6)                  0.0                     0.0                    !
 ! R4    R(2,3)                  0.0                     0.0                    !
 ! R5    R(2,7)                  0.0                     0.0                    !
 ! R6    R(3,4)                  0.0                     0.0                    !
 ! R7    R(3,8)                  0.0                     0.0                    !
 ! R8    R(4,5)                  0.0                     0.0                    !
 ! R9    R(4,9)                  0.0                     0.0                    !
 ! A1    A(2,1,5)                0.0                     0.0                    !
 ! A2    A(2,1,6)                0.0                     0.0                    !
 ! A3    A(5,1,6)                0.0                     0.0                    !
 ! A4    A(1,2,3)                0.0                     0.0                    !
 ! A5    A(1,2,7)                0.0                     0.0                    !
 ! A6    A(3,2,7)                0.0                     0.0                    !
 ! A7    A(2,3,4)                0.0                     0.0                    !
 ! A8    A(2,3,8)                0.0                     0.0                    !
 ! A9    A(4,3,8)                0.0                     0.0                    !
 ! A10   A(3,4,5)                0.0                     0.0                    !
 ! A11   A(3,4,9)                0.0                     0.0                    !
 ! A12   A(5,4,9)                0.0                     0.0                    !
 ! A13   A(1,5,4)                0.0                     0.0                    !
 ! D1    D(5,1,2,3)              0.3935                 10.4                    !
 ! D2    D(5,1,2,7)              0.2513                  6.7                    !
 ! D3    D(6,1,2,3)              0.0007                  0.0                    !
 ! D4    D(6,1,2,7)             -0.1415                  3.8                    !
 ! D5    D(2,1,5,4)             -0.1465                  3.9                    !
 ! D6    D(6,1,5,4)              0.2088                  5.5                    !
 ! D7    D(1,2,3,4)             -0.5141                 13.6                    !
 ! D8    D(1,2,3,8)             -0.3708                  9.8                    !
 ! D9    D(7,2,3,4)             -0.3708                  9.8                    !
 ! D10   D(7,2,3,8)             -0.2275                  6.0                    !
 ! D11   D(2,3,4,5)              0.3935                 10.4                    !
 ! D12   D(2,3,4,9)              0.0007                  0.0                    !
 ! D13   D(8,3,4,5)              0.2513                  6.7                    !
 ! D14   D(8,3,4,9)             -0.1415                  3.8                    !
 ! D15   D(3,4,5,1)             -0.1465                  3.9                    !
 ! D16   D(9,4,5,1)              0.2088                  5.5                    !
 --------------------------------------------------------------------------------
                           ----------------------------
                           ! Normal Mode     3        !
 --------------------------                            --------------------------
 ! Name  Definition              Value          Relative Weight (%)             !
 --------------------------------------------------------------------------------
 ! R1    R(1,2)                  0.0055                  0.2                    !
 ! R2    R(1,5)                  0.2985                 12.4                    !
 ! R3    R(1,6)                  0.0023                  0.1                    !
 ! R4    R(2,3)                 -0.0085                  0.4                    !
 ! R5    R(2,7)                  0.0038                  0.2                    !
 ! R6    R(3,4)                  0.0055                  0.2                    !
 ! R7    R(3,8)                  0.0038                  0.2                    !
 ! R8    R(4,5)                  0.2985                 12.4                    !
 ! R9    R(4,9)                  0.0023                  0.1                    !
 ! A1    A(2,1,5)                0.2541                 10.5                    !
 ! A2    A(2,1,6)               -0.1839                  7.6                    !
 ! A3    A(5,1,6)               -0.0702                  2.9                    !
 ! A4    A(1,2,3)               -0.0783                  3.2                    !
 ! A5    A(1,2,7)               -0.0257                  1.1                    !
 ! A6    A(3,2,7)                0.104                   4.3                    !
 ! A7    A(2,3,4)               -0.0783                  3.2                    !
 ! A8    A(2,3,8)                0.104                   4.3                    !
 ! A9    A(4,3,8)               -0.0257                  1.1                    !
 ! A10   A(3,4,5)                0.2541                 10.5                    !
 ! A11   A(3,4,9)               -0.1839                  7.6                    !
 ! A12   A(5,4,9)               -0.0702                  2.9                    !
 ! A13   A(1,5,4)               -0.3517                 14.6                    !
 ! D1    D(5,1,2,3)              0.0                     0.0                    !
 ! D2    D(5,1,2,7)              0.0                     0.0                    !
 ! D3    D(6,1,2,3)              0.0                     0.0                    !
 ! D4    D(6,1,2,7)              0.0                     0.0                    !
 ! D5    D(2,1,5,4)              0.0                     0.0                    !
 ! D6    D(6,1,5,4)              0.0                     0.0                    !
 ! D7    D(1,2,3,4)              0.0                     0.0                    !
 ! D8    D(1,2,3,8)              0.0                     0.0                    !
 ! D9    D(7,2,3,4)              0.0                     0.0                    !
 ! D10   D(7,2,3,8)              0.0                     0.0                    !
 ! D11   D(2,3,4,5)              0.0                     0.0                    !
 ! D12   D(2,3,4,9)              0.0                     0.0                    !
 ! D13   D(8,3,4,5)              0.0                     0.0                    !
 ! D14   D(8,3,4,9)              0.0                     0.0                    !
 ! D15   D(3,4,5,1)              0.0                     0.0                    !
 ! D16   D(9,4,5,1)              0.0                     0.0                    !
 --------------------------------------------------------------------------------
                           ----------------------------
                           ! Normal Mode     4        !
 --------------------------                            --------------------------
 ! Name  Definition              Value          Relative Weight (%)             !
 --------------------------------------------------------------------------------
 ! R1    R(1,2)                  0.0                     0.0                    !
 ! R2    R(1,5)                  0.0                     0.0                    !
 ! R3    R(1,6)                  0.0                     0.0                    !
 ! R4    R(2,3)                  0.0                     0.0                    !
 ! R5    R(2,7)                  0.0                     0.0                    !
 ! R6    R(3,4)                  0.0                     0.0                    !
 ! R7    R(3,8)                  0.0                     0.0                    !
 ! R8    R(4,5)                  0.0                     0.0                    !
 ! R9    R(4,9)                  0.0                     0.0                    !
 ! A1    A(2,1,5)                0.0                     0.0                    !
 ! A2    A(2,1,6)                0.0                     0.0                    !
 ! A3    A(5,1,6)                0.0                     0.0                    !
 ! A4    A(1,2,3)                0.0                     0.0                    !
 ! A5    A(1,2,7)                0.0                     0.0                    !
 ! A6    A(3,2,7)                0.0                     0.0                    !
 ! A7    A(2,3,4)                0.0                     0.0                    !
 ! A8    A(2,3,8)                0.0                     0.0                    !
 ! A9    A(4,3,8)                0.0                     0.0                    !
 ! A10   A(3,4,5)                0.0                     0.0                    !
 ! A11   A(3,4,9)                0.0                     0.0                    !
 ! A12   A(5,4,9)                0.0                     0.0                    !
 ! A13   A(1,5,4)                0.0                     0.0                    !
 ! D1    D(5,1,2,3)             -0.0522                  1.4                    !
 ! D2    D(5,1,2,7)              0.1474                  3.9                    !
 ! D3    D(6,1,2,3)             -0.5385                 14.2                    !
 ! D4    D(6,1,2,7)             -0.3388                  9.0                    !
 ! D5    D(2,1,5,4)              0.0194                  0.5                    !
 ! D6    D(6,1,5,4)              0.4591                 12.1                    !
 ! D7    D(1,2,3,4)              0.0683                  1.8                    !
 ! D8    D(1,2,3,8)             -0.133                   3.5                    !
 ! D9    D(7,2,3,4)             -0.133                   3.5                    !
 ! D10   D(7,2,3,8)             -0.3343                  8.8                    !
 ! D11   D(2,3,4,5)             -0.0522                  1.4                    !
 ! D12   D(2,3,4,9)             -0.5385                 14.2                    !
 ! D13   D(8,3,4,5)              0.1474                  3.9                    !
 ! D14   D(8,3,4,9)             -0.3388                  9.0                    !
 ! D15   D(3,4,5,1)              0.0194                  0.5                    !
 ! D16   D(9,4,5,1)              0.4591                 12.1                    !
 --------------------------------------------------------------------------------
                           ----------------------------
                           ! Normal Mode     5        !
 --------------------------                            --------------------------
 ! Name  Definition              Value          Relative Weight (%)             !
 --------------------------------------------------------------------------------
 ! R1    R(1,2)                  0.0                     0.0                    !
 ! R2    R(1,5)                  0.0                     0.0                    !
 ! R3    R(1,6)                  0.0                     0.0                    !
 ! R4    R(2,3)                  0.0                     0.0                    !
 ! R5    R(2,7)                  0.0                     0.0                    !
 ! R6    R(3,4)                  0.0                     0.0                    !
 ! R7    R(3,8)                  0.0                     0.0                    !
 ! R8    R(4,5)                  0.0                     0.0                    !
 ! R9    R(4,9)                  0.0                     0.0                    !
 ! A1    A(2,1,5)                0.0                     0.0                    !
 ! A2    A(2,1,6)                0.0                     0.0                    !
 ! A3    A(5,1,6)                0.0                     0.0                    !
 ! A4    A(1,2,3)                0.0                     0.0                    !
 ! A5    A(1,2,7)                0.0                     0.0                    !
 ! A6    A(3,2,7)                0.0                     0.0                    !
 ! A7    A(2,3,4)                0.0                     0.0                    !
 ! A8    A(2,3,8)                0.0                     0.0                    !
 ! A9    A(4,3,8)                0.0                     0.0                    !
 ! A10   A(3,4,5)                0.0                     0.0                    !
 ! A11   A(3,4,9)                0.0                     0.0                    !
 ! A12   A(5,4,9)                0.0                     0.0                    !
 ! A13   A(1,5,4)                0.0                     0.0                    !
 ! D1    D(5,1,2,3)              0.0196                  0.7                    !
 ! D2    D(5,1,2,7)              0.3203                 11.4                    !
 ! D3    D(6,1,2,3)             -0.3583                 12.8                    !
 ! D4    D(6,1,2,7)             -0.0576                  2.1                    !
 ! D5    D(2,1,5,4)             -0.026                   0.9                    !
 ! D6    D(6,1,5,4)              0.3158                 11.3                    !
 ! D7    D(1,2,3,4)              0.0                     0.0                    !
 ! D8    D(1,2,3,8)              0.3031                 10.8                    !
 ! D9    D(7,2,3,4)             -0.3031                 10.8                    !
 ! D10   D(7,2,3,8)              0.0                     0.0                    !
 ! D11   D(2,3,4,5)             -0.0196                  0.7                    !
 ! D12   D(2,3,4,9)              0.3583                 12.8                    !
 ! D13   D(8,3,4,5)             -0.3203                 11.4                    !
 ! D14   D(8,3,4,9)              0.0576                  2.1                    !
 ! D15   D(3,4,5,1)              0.026                   0.9                    !
 ! D16   D(9,4,5,1)             -0.3158                 11.3                    !
 --------------------------------------------------------------------------------
                           ----------------------------
                           ! Normal Mode     6        !
 --------------------------                            --------------------------
 ! Name  Definition              Value          Relative Weight (%)             !
 --------------------------------------------------------------------------------
 ! R1    R(1,2)                 -0.0124                  0.6                    !
 ! R2    R(1,5)                 -0.4417                 20.1                    !
 ! R3    R(1,6)                 -0.005                   0.2                    !
 ! R4    R(2,3)                  0.0                     0.0                    !
 ! R5    R(2,7)                 -0.0047                  0.2                    !
 ! R6    R(3,4)                  0.0124                  0.6                    !
 ! R7    R(3,8)                  0.0047                  0.2                    !
 ! R8    R(4,5)                  0.4417                 20.1                    !
 ! R9    R(4,9)                  0.005                   0.2                    !
 ! A1    A(2,1,5)                0.0003                  0.0                    !
 ! A2    A(2,1,6)               -0.0815                  3.7                    !
 ! A3    A(5,1,6)                0.0813                  3.7                    !
 ! A4    A(1,2,3)                0.2362                 10.7                    !
 ! A5    A(1,2,7)               -0.2039                  9.3                    !
 ! A6    A(3,2,7)               -0.0323                  1.5                    !
 ! A7    A(2,3,4)               -0.2362                 10.7                    !
 ! A8    A(2,3,8)                0.0323                  1.5                    !
 ! A9    A(4,3,8)                0.2039                  9.3                    !
 ! A10   A(3,4,5)               -0.0003                  0.0                    !
 ! A11   A(3,4,9)                0.0815                  3.7                    !
 ! A12   A(5,4,9)               -0.0813                  3.7                    !
 ! A13   A(1,5,4)                0.0                     0.0                    !
 ! D1    D(5,1,2,3)              0.0                     0.0                    !
 ! D2    D(5,1,2,7)              0.0                     0.0                    !
 ! D3    D(6,1,2,3)              0.0                     0.0                    !
 ! D4    D(6,1,2,7)              0.0                     0.0                    !
 ! D5    D(2,1,5,4)              0.0                     0.0                    !
 ! D6    D(6,1,5,4)              0.0                     0.0                    !
 ! D7    D(1,2,3,4)              0.0                     0.0                    !
 ! D8    D(1,2,3,8)              0.0                     0.0                    !
 ! D9    D(7,2,3,4)              0.0                     0.0                    !
[...]
     10   0.000000D+00  0.000000D+00 -0.401421D+00  0.583921D+00 -0.401421D+00
     11   0.000000D+00  0.000000D+00  0.000000D+00  0.000000D+00  0.000000D+00
     12   0.000000D+00  0.000000D+00  0.000000D+00  0.000000D+00  0.000000D+00
                26            27            28            29            30 
      1  -0.625320D+00 -0.415962D+00  0.565484D+00  0.419683D+00  0.419683D+00
      2   0.000000D+00  0.000000D+00  0.000000D+00  0.000000D+00  0.000000D+00
      3   0.000000D+00  0.000000D+00  0.000000D+00  0.000000D+00  0.000000D+00
      4   0.118695D+01  0.544068D+00 -0.733682D+00 -0.730143D+00 -0.325516D+00
      5   0.000000D+00  0.000000D+00  0.000000D+00  0.000000D+00  0.000000D+00
      6   0.000000D+00  0.000000D+00  0.000000D+00  0.000000D+00  0.000000D+00
      7  -0.114555D+01 -0.433081D+00 -0.136778D+00  0.730143D+00 -0.682751D+00
      8   0.000000D+00  0.000000D+00  0.000000D+00  0.000000D+00  0.000000D+00
      9   0.000000D+00  0.000000D+00  0.000000D+00  0.000000D+00  0.000000D+00
     10   0.583921D+00  0.304975D+00  0.304975D+00 -0.419683D+00  0.588584D+00
     11   0.000000D+00  0.000000D+00  0.000000D+00  0.000000D+00  0.000000D+00
     12   0.000000D+00  0.000000D+00  0.000000D+00  0.000000D+00  0.000000D+00
                31            32            33            34            35 
      1  -0.588584D+00 -0.588584D+00  0.401421D+00  0.401421D+00 -0.583921D+00
      2   0.000000D+00  0.000000D+00  0.000000D+00  0.000000D+00  0.000000D+00
      3   0.000000D+00  0.000000D+00  0.000000D+00  0.000000D+00  0.000000D+00
      4   0.682751D+00  0.108738D+01 -0.716125D+00 -0.256149D+00  0.685574D+00
      5   0.000000D+00  0.000000D+00  0.000000D+00  0.000000D+00  0.000000D+00
      6   0.000000D+00  0.000000D+00  0.000000D+00  0.000000D+00  0.000000D+00
      7   0.325516D+00 -0.108738D+01  0.642361D+00 -0.770592D+00  0.226003D+00
      8   0.000000D+00  0.000000D+00  0.000000D+00  0.000000D+00  0.000000D+00
      9   0.000000D+00  0.000000D+00  0.000000D+00  0.000000D+00  0.000000D+00
     10  -0.419683D+00  0.588584D+00 -0.327656D+00  0.625320D+00 -0.327656D+00
     11   0.000000D+00  0.000000D+00  0.000000D+00  0.000000D+00  0.000000D+00
     12   0.000000D+00  0.000000D+00  0.000000D+00  0.000000D+00  0.000000D+00
                36            37            38 
      1  -0.583921D+00  0.415962D+00 -0.565484D+00
      2   0.000000D+00  0.000000D+00  0.000000D+00
      3   0.000000D+00  0.000000D+00  0.000000D+00
      4   0.114555D+01 -0.544068D+00  0.733682D+00
      5   0.000000D+00  0.000000D+00  0.000000D+00
      6   0.000000D+00  0.000000D+00  0.000000D+00
      7  -0.118695D+01  0.433081D+00  0.136778D+00
      8   0.000000D+00  0.000000D+00  0.000000D+00
      9   0.000000D+00  0.000000D+00  0.000000D+00
     10   0.625320D+00 -0.304975D+00 -0.304975D+00
     11   0.000000D+00  0.000000D+00  0.000000D+00
     12   0.000000D+00  0.000000D+00  0.000000D+00
 Iteration  1 RMS(Cart)=  0.00025257 RMS(Int)=  0.00000008
 Iteration  2 RMS(Cart)=  0.00000007 RMS(Int)=  0.00000000
 Input Coordinates in SymCor: 
                 1             2             3             4             5 
      1   0.000000D+00  0.000000D+00  0.000000D+00  0.000000D+00  0.000000D+00
      2   0.234982D+01  0.135071D+01 -0.135071D+01 -0.234982D+01  0.000000D+00
      3  -0.219371D-01 -0.240454D+01 -0.240454D+01 -0.219371D-01  0.226631D+01
                 6             7             8             9 
      1   0.000000D+00  0.000000D+00  0.000000D+00  0.000000D+00
      2   0.431589D+01  0.249427D+01 -0.249427D+01 -0.431589D+01
      3   0.531760D+00 -0.410406D+01 -0.410406D+01  0.531760D+00
 Symmetrized Coordinates in SymCor: 
                 1             2             3             4             5 
      1   0.000000D+00  0.000000D+00  0.000000D+00  0.000000D+00  0.000000D+00
      2   0.234982D+01  0.135071D+01 -0.135071D+01 -0.234982D+01  0.000000D+00
      3  -0.219372D-01 -0.240454D+01 -0.240454D+01 -0.219372D-01  0.226631D+01
                 6             7             8             9 
      1   0.000000D+00  0.000000D+00  0.000000D+00  0.000000D+00
      2   0.431589D+01  0.249427D+01 -0.249427D+01 -0.431589D+01
      3   0.531760D+00 -0.410406D+01 -0.410406D+01  0.531760D+00
 Final Coordinates in SymCor: 
                 1             2             3             4             5 
      1   0.000000D+00  0.000000D+00  0.000000D+00  0.000000D+00  0.000000D+00
      2   0.234982D+01  0.135071D+01 -0.135071D+01 -0.234982D+01  0.000000D+00
      3  -0.219371D-01 -0.240454D+01 -0.240454D+01 -0.219371D-01  0.226631D+01
                 6             7             8             9 
      1   0.000000D+00  0.000000D+00  0.000000D+00  0.000000D+00
      2   0.431589D+01  0.249427D+01 -0.249427D+01 -0.431589D+01
      3   0.531760D+00 -0.410406D+01 -0.410406D+01  0.531760D+00
 ClnCor:  largest displacement from symmetrization is 2.80D-12 for atom     8.
 Variable       Old X    -DE/DX   Delta X   Delta X   Delta X     New X
                                 (Linear)    (Quad)   (Total)
    R1        2.58376  -0.00007   0.00000  -0.00015  -0.00015   2.58360
    R2        3.28010  -0.00006   0.00000  -0.00021  -0.00021   3.27989
    R3        2.04264  -0.00003   0.00000  -0.00008  -0.00008   2.04256
    R4        2.70130   0.00003   0.00000   0.00013   0.00013   2.70143
    R5        2.04858  -0.00005   0.00000  -0.00015  -0.00015   2.04844
    R6        2.58376  -0.00007   0.00000  -0.00015  -0.00015   2.58360
    R7        2.04858  -0.00005   0.00000  -0.00015  -0.00015   2.04844
    R8        3.28010  -0.00006   0.00000  -0.00021  -0.00021   3.27989
    R9        2.04264  -0.00003   0.00000  -0.00008  -0.00008   2.04256
    A1        1.94594  -0.00002   0.00000  -0.00009  -0.00009   1.94586
    A2        2.24228   0.00001   0.00000   0.00009   0.00009   2.24237
    A3        2.09496   0.00001   0.00000  -0.00001  -0.00001   2.09495
    A4        1.96785   0.00001   0.00000   0.00001   0.00001   1.96786
    A5        2.15169   0.00005   0.00000   0.00056   0.00056   2.15225
    A6        2.16365  -0.00006   0.00000  -0.00057  -0.00057   2.16308
    A7        1.96785   0.00001   0.00000   0.00001   0.00001   1.96786
    A8        2.16365  -0.00006   0.00000  -0.00057  -0.00057   2.16308
    A9        2.15169   0.00005   0.00000   0.00056   0.00056   2.15225
   A10        1.94594  -0.00002   0.00000  -0.00009  -0.00009   1.94586
   A11        2.24228   0.00001   0.00000   0.00009   0.00009   2.24237
   A12        2.09496   0.00001   0.00000  -0.00001  -0.00001   2.09495
   A13        1.59719   0.00003   0.00000   0.00015   0.00015   1.59735
    D1        0.00000  -0.00000   0.00000  -0.00000   0.00000   0.00000
    D2        3.14159   0.00000   0.00000   0.00000   0.00000   3.14159
    D3        3.14159  -0.00000   0.00000  -0.00000   0.00000   3.14159
    D4       -0.00000   0.00000   0.00000  -0.00000   0.00000   0.00000
    D5       -0.00000   0.00000   0.00000   0.00000   0.00000   0.00000
    D6        3.14159   0.00000   0.00000   0.00000   0.00000   3.14159
    D7       -0.00000  -0.00000   0.00000  -0.00000   0.00000   0.00000
    D8        3.14159   0.00000   0.00000   0.00000   0.00000   3.14159
    D9        3.14159  -0.00000   0.00000  -0.00000   0.00000   3.14159
   D10        0.00000  -0.00000   0.00000  -0.00000  -0.00000   0.00000
   D11       -0.00000   0.00000   0.00000   0.00000   0.00000   0.00000
   D12        3.14159   0.00000   0.00000   0.00000   0.00000   3.14159
   D13        3.14159   0.00000   0.00000  -0.00000   0.00000   3.14159
   D14        0.00000  -0.00000   0.00000  -0.00000   0.00000   0.00000
   D15        0.00000  -0.00000   0.00000  -0.00000   0.00000   0.00000
   D16        3.14159  -0.00000   0.00000  -0.00000   0.00000   3.14159
         Item               Value     Threshold  Converged?
 Maximum Force            0.000073     0.000450     YES
 RMS     Force            0.000033     0.000300     YES
 Maximum Displacement     0.000985     0.001800     YES
 RMS     Displacement     0.000253     0.001200     YES
 Predicted change in Energy=-1.022734D-07
 Optimization completed.
    -- Stationary point found.
                           ----------------------------
                           !   Optimized Parameters   !
                           ! (Angstroms and Degrees)  !
 --------------------------                            --------------------------
 ! Name  Definition              Value          Derivative Info.                !
 --------------------------------------------------------------------------------
 ! R1    R(1,2)                  1.3673         -DE/DX =   -0.0001              !
 ! R2    R(1,5)                  1.7358         -DE/DX =   -0.0001              !
 ! R3    R(1,6)                  1.0809         -DE/DX =    0.0                 !
 ! R4    R(2,3)                  1.4295         -DE/DX =    0.0                 !
 ! R5    R(2,7)                  1.0841         -DE/DX =   -0.0001              !
 ! R6    R(3,4)                  1.3673         -DE/DX =   -0.0001              !
 ! R7    R(3,8)                  1.0841         -DE/DX =   -0.0001              !
 ! R8    R(4,5)                  1.7358         -DE/DX =   -0.0001              !
 ! R9    R(4,9)                  1.0809         -DE/DX =    0.0                 !
 ! A1    A(2,1,5)              111.4944         -DE/DX =    0.0                 !
 ! A2    A(2,1,6)              128.4731         -DE/DX =    0.0                 !
 ! A3    A(5,1,6)              120.0325         -DE/DX =    0.0                 !
 ! A4    A(1,2,3)              112.7494         -DE/DX =    0.0                 !
 ! A5    A(1,2,7)              123.2826         -DE/DX =    0.0001              !
 ! A6    A(3,2,7)              123.968          -DE/DX =   -0.0001              !
 ! A7    A(2,3,4)              112.7494         -DE/DX =    0.0                 !
 ! A8    A(2,3,8)              123.968          -DE/DX =   -0.0001              !
 ! A9    A(4,3,8)              123.2826         -DE/DX =    0.0001              !
 ! A10   A(3,4,5)              111.4944         -DE/DX =    0.0                 !
 ! A11   A(3,4,9)              128.4731         -DE/DX =    0.0                 !
 ! A12   A(5,4,9)              120.0325         -DE/DX =    0.0                 !
 ! A13   A(1,5,4)               91.5124         -DE/DX =    0.0                 !
 ! D1    D(5,1,2,3)              0.0            -DE/DX =    0.0                 !
 ! D2    D(5,1,2,7)            180.0            -DE/DX =    0.0                 !
 ! D3    D(6,1,2,3)            180.0            -DE/DX =    0.0                 !
 ! D4    D(6,1,2,7)              0.0            -DE/DX =    0.0                 !
 ! D5    D(2,1,5,4)              0.0            -DE/DX =    0.0                 !
 ! D6    D(6,1,5,4)            180.0            -DE/DX =    0.0                 !
 ! D7    D(1,2,3,4)              0.0            -DE/DX =    0.0                 !
 ! D8    D(1,2,3,8)            180.0            -DE/DX =    0.0                 !
 ! D9    D(7,2,3,4)            180.0            -DE/DX =    0.0                 !
 ! D10   D(7,2,3,8)              0.0            -DE/DX =    0.0                 !
 ! D11   D(2,3,4,5)              0.0            -DE/DX =    0.0                 !
 ! D12   D(2,3,4,9)            180.0            -DE/DX =    0.0                 !
 ! D13   D(8,3,4,5)            180.0            -DE/DX =    0.0                 !
 ! D14   D(8,3,4,9)              0.0            -DE/DX =    0.0                 !
 ! D15   D(3,4,5,1)              0.0            -DE/DX =    0.0                 !
 ! D16   D(9,4,5,1)            180.0            -DE/DX =    0.0                 !
 --------------------------------------------------------------------------------
 GradGradGradGradGradGradGradGradGradGradGradGradGradGradGradGradGradGrad

 Leave Link  103 at Sat Aug 10 16:34:04 2019, MaxMem=  4294967296 cpu:               7.6 elap:               0.9

 ----------------------------------------------------------------------

 Electric dipole moment (input orientation):
 (Debye = 10**-18 statcoulomb cm , SI units = C m)
                  (au)            (Debye)         (10**-30 SI)
   Tot        0.244862D+00      0.622377D+00      0.207603D+01
   x          0.000000D+00      0.000000D+00      0.000000D+00
   y          0.000000D+00      0.000000D+00      0.000000D+00
   z         -0.244862D+00     -0.622377D+00     -0.207603D+01

 Dipole polarizability, Alpha (input orientation).
 (esu units = cm**3 , SI units = C**2 m**2 J**-1)
 Alpha(0;0):
               (au)            (10**-24 esu)      (10**-40 SI)
   iso        0.503501D+02      0.746112D+01      0.830162D+01
   aniso      0.396231D+02      0.587154D+01      0.653297D+01
   xx         0.241749D+02      0.358235D+01      0.398590D+01
   yx         0.000000D+00      0.000000D+00      0.000000D+00
   yy         0.603598D+02      0.894440D+01      0.995199D+01
   zx         0.000000D+00      0.000000D+00      0.000000D+00
   zy         0.000000D+00      0.000000D+00      0.000000D+00
   zz         0.665157D+02      0.985661D+01      0.109670D+02

 ----------------------------------------------------------------------

 Dipole orientation:
     6         -0.00000000         -2.34979129          0.02199263
     6         -0.00000000         -1.35064962          2.40474452
     6         -0.00000000          1.35064962          2.40474452
     6         -0.00000000          2.34979129          0.02199263
    16         -0.00000000         -0.00000000         -2.26657531
     1         -0.00000000         -4.31599274         -0.53155917
     1         -0.00000000         -2.49525296          4.10373681
     1         -0.00000000          2.49525296          4.10373681
     1         -0.00000000          4.31599274         -0.53155917

 Electric dipole moment (dipole orientation):
 (Debye = 10**-18 statcoulomb cm , SI units = C m)
                  (au)            (Debye)         (10**-30 SI)
   Tot        0.244862D+00      0.622377D+00      0.207603D+01
   x          0.000000D+00      0.000000D+00      0.000000D+00
   y          0.000000D+00      0.000000D+00      0.000000D+00
   z          0.244862D+00      0.622377D+00      0.207603D+01

 Dipole polarizability, Alpha (dipole orientation).
 (esu units = cm**3 , SI units = C**2 m**2 J**-1)
 Alpha(0;0):
               (au)            (10**-24 esu)      (10**-40 SI)
   iso        0.503501D+02      0.746112D+01      0.830162D+01
   aniso      0.396231D+02      0.587154D+01      0.653297D+01
   xx         0.241749D+02      0.358235D+01      0.398590D+01
   yx         0.000000D+00      0.000000D+00      0.000000D+00
   yy         0.603598D+02      0.894440D+01      0.995199D+01
   zx         0.000000D+00      0.000000D+00      0.000000D+00
   zy         0.000000D+00      0.000000D+00      0.000000D+00
   zz         0.665157D+02      0.985661D+01      0.109670D+02

 ----------------------------------------------------------------------

 Test job not archived.
 1\1\NSC-N1849\Freq\RB3LYP\6-31G(d,p)\C4H4S1\X_KJEJO\10-Aug-2019\0\\# f
 req(hpmodes,intmodes) iop(1/33=3) b3lyp/6-31g(d,p) geom=connectivity i
 op(7/75=-1)\\name\\0,1\C,0.,1.243456,-0.011638\C,0.,0.714733,-1.272536
 \C,0.,-0.714733,-1.272536\C,0.,-1.243456,-0.011638\S,0.,0.,1.19942\H,0
 .,2.283925,0.281289\H,0.,1.320431,-2.171604\H,0.,-1.320431,-2.171604\H
 ,0.,-2.283925,0.281289\\Version=ES64L-G16RevB.01\State=1-A1\HF=-553.00
 92995\RMSD=5.435e-09\RMSF=4.959e-05\ZeroPoint=0.0668052\Thermal=0.0708
 797\Dipole=0.,0.,-0.2448621\DipoleDeriv=-0.2493354,0.,0.,0.,-0.0391143
 ,-0.2136238,0.,-0.1122022,0.2783739,-0.1066988,0.,0.,0.,0.0172083,-0.1
 62675,0.,-0.0474888,-0.1683165,-0.1066988,0.,0.,0.,0.0172083,0.162675,
 0.,0.0474888,-0.1683164,-0.2493354,0.,0.,0.,-0.0391143,0.2136238,0.,0.
 1122022,0.2783739,0.0972508,0.,0.,0.,0.0089742,0.,0.,0.,-0.2670242,0.1
 654373,0.,0.,0.,-0.0178476,-0.010781,0.,0.0114843,0.0647833,0.1419716,
 0.,0.,0.,0.0352665,0.0572418,0.,0.0865846,-0.0413286,0.1419716,0.,0.,0
 .,0.0352665,-0.0572418,0.,-0.0865846,-0.0413286,0.1654373,0.,0.,0.,-0.
 0178476,0.010781,0.,-0.0114843,0.0647833\Polar=24.1749146,0.,60.359793
 ,0.,0.,66.515689\Quadrupole=-3.3187035,2.9217666,0.396937,0.,0.,0.\PG=
 C02V [C2(S1),SGV(C4H4)]\NImag=0\\0.08520190,0.,0.68436474,0.,0.1684285
 2,0.58166352,-0.05465477,0.,0.,0.12221156,0.,-0.14457023,-0.09173920,0
 .,0.62414178,0.,-0.12768242,-0.37238796,0.,-0.05530682,0.79063509,0.00
 894460,0.,0.,-0.06079476,0.,0.,0.12221156,0.,-0.03637779,-0.06871133,0
 .,-0.27776064,0.02194605,0.,0.62414178,0.,-0.01860032,0.00655998,0.,-0
 .02194605,-0.10812686,0.,0.05530682,0.79063509,0.00984592,0.,0.,0.0089
 4460,0.,0.,-0.05465477,0.,0.,0.08520190,0.,-0.05372623,0.00511596,0.,-
 0.03637779,0.01860032,0.,-0.14457023,0.12768242,0.,0.68436474,0.,-0.00
 511596,-0.02359878,0.,0.06871133,0.00655998,0.,0.09173920,-0.37238796,
 0.,-0.16842852,0.58166352,-0.03270406,0.,0.,0.00774169,0.,0.,0.0077416
 9,0.,0.,-0.03270406,0.,0.,0.04319828,0.,-0.11455908,0.08324143,0.,-0.0
 0879964,0.02994151,0.,-0.00879964,-0.02994151,0.,-0.11455908,-0.083241
 43,0.,0.26542710,0.,0.04883106,-0.09576803,0.,-0.01439667,-0.06557331,
 0.,0.01439667,-0.06557331,0.,-0.04883106,-0.09576803,0.,0.,0.31782538,
 -0.02190016,0.,0.,0.00140108,0.,0.,0.00569205,0.,0.,-0.00010168,0.,0.,
 -0.00371032,0.,0.,0.01903635,0.,-0.33759000,-0.08290062,0.,-0.00245054
 ,0.00248109,0.,0.00064790,-0.00150368,0.,-0.00101594,0.00240447,0.,-0.
 01011618,-0.00474763,0.,0.35049834,0.,-0.08068841,-0.07472288,0.,-0.02
 564635,0.00327073,0.,-0.00171993,-0.00516233,0.,0.00419605,-0.00527341
 ,0.,0.01866142,0.00585614,0.,0.08525225,0.07316397,0.00326898,0.,0.,-0
 .03117289,0.,0.,0.00063143,0.,0.,0.00209925,0.,0.,0.00707355,0.,0.,-0.
 00420362,0.,0.,0.02320409,0.,0.00993387,-0.01143849,0.,-0.14807197,0.1
 3397970,0.,-0.00675886,0.02546311,0.,-0.00645934,-0.00040820,0.,0.0007
 6135,-0.00388194,0.,0.00028391,0.00076752,0.,0.14960064,0.,0.01691734,
 -0.01625936,0.,0.13458717,-0.25538969,0.,-0.00401665,0.00617434,0.,-0.
 00210625,-0.00021309,0.,-0.00025231,-0.00342749,0.,-0.00039995,0.00087
 238,0.,-0.14530977,0.26770737,0.00209925,0.,0.,0.00063143,0.,0.,-0.031
 17289,0.,0.,0.00326898,0.,0.,0.00707355,0.,0.,0.00094711,0.,0.,-0.0018
 4791,0.,0.,0.02320409,0.,-0.00645934,0.00040820,0.,-0.00675886,-0.0254
 6311,0.,-0.14807197,-0.13397970,0.,0.00993387,0.01143849,0.,0.00076135
 ,0.00388194,0.,-0.00014564,-0.00146928,0.,0.00085604,0.00064122,0.,0.1
 4960064,0.,0.00210625,-0.00021309,0.,0.00401665,0.00617434,0.,-0.13458
 717,-0.25538969,0.,-0.01691734,-0.01625936,0.,0.00025231,-0.00342749,0
 .,0.00006080,0.00045023,0.,-0.00064122,0.00008530,0.,0.14530977,0.2677
 0737,-0.00010168,0.,0.,0.00569205,0.,0.,0.00140108,0.,0.,-0.02190016,0
 .,0.,-0.00371032,0.,0.,0.00283920,0.,0.,0.00094711,0.,0.,-0.00420362,0
 .,0.,0.01903635,0.,-0.00101594,-0.00240447,0.,0.00064790,0.00150368,0.
 ,-0.00245054,-0.00248109,0.,-0.33759000,0.08290062,0.,-0.01011618,0.00
 474764,0.,-0.00011185,0.00064672,0.,-0.00014564,-0.00006080,0.,0.00028
 391,0.00039995,0.,0.35049834,0.,-0.00419605,-0.00527341,0.,0.00171993,
 -0.00516233,0.,0.02564635,0.00327073,0.,0.08068841,-0.07472288,0.,-0.0
 1866142,0.00585614,0.,-0.00064672,0.00154517,0.,0.00146928,0.00045023,
 0.,-0.00076752,0.00087238,0.,-0.08525225,0.07316397\\0.,0.00002695,0.0
 0000580,0.,-0.00013108,-0.00005087,0.,0.00013108,-0.00005087,0.,-0.000
 02695,0.00000580,0.,0.,0.00010899,0.,0.00003026,0.00000623,0.,0.000074
 38,-0.00001566,0.,-0.00007438,-0.00001566,0.,-0.00003026,0.00000623\\\
 @


 "MATHEMATICS IS THE ART OF GIVING THE SAME NAME
 TO DIFFERENT THINGS."
                    - H. POINCARE
 Job cpu time:       0 days  0 hours  3 minutes 26.6 seconds.
 Elapsed time:       0 days  0 hours  0 minutes 17.7 seconds.
 File lengths (MBytes):  RWF=     12 Int=      0 D2E=      0 Chk=      8 Scr=      1
 Normal termination of Gaussian 16 at Sat Aug 10 16:34:04 2019.
