 Entering Gaussian System, Link 0=/software/sse/easybuild/prefix/software/Gaussian/16.B.01-avx2-nsc1-bdist/g16/g16.orig
 Input=freq-hp.wrap
 Output=freq-hp.log
 Initial command:
 /software/sse/easybuild/prefix/software/Gaussian/16.B.01-avx2-nsc1-bdist/g16/l1.exe "/scratch/local/Gau-286294.inp" -scrdir="/scratch/local/"
 Default is to use a total of  16 processors:
                               16 via shared-memory
                                1 via Linda
 Entering Link 1 = /software/sse/easybuild/prefix/software/Gaussian/16.B.01-avx2-nsc1-bdist/g16/l1.exe PID=    286300.
  
 Copyright (c) 1988-2017, Gaussian, Inc.  All Rights Reserved.
  
 This is part of the Gaussian(R) 16 program.  It is based on
 the Gaussian(R) 09 system (copyright 2009, Gaussian, Inc.),
 the Gaussian(R) 03 system (copyright 2003, Gaussian, Inc.),
 the Gaussian(R) 98 system (copyright 1998, Gaussian, Inc.),
 the Gaussian(R) 94 system (copyright 1995, Gaussian, Inc.),
 the Gaussian 92(TM) system (copyright 1992, Gaussian, Inc.),
 the Gaussian 90(TM) system (copyright 1990, Gaussian, Inc.),
 the Gaussian 88(TM) system (copyright 1988, Gaussian, Inc.),
 the Gaussian 86(TM) system (copyright 1986, Carnegie Mellon
 University), and the Gaussian 82(TM) system (copyright 1983,
 Carnegie Mellon University). Gaussian is a federally registered
 trademark of Gaussian, Inc.
  
 This software contains proprietary and confidential information,
 including trade secrets, belonging to Gaussian, Inc.
  
 This software is provided under written license and may be
 used, copied, transmitted, or stored only in accord with that
 written license.
  
 The following legend is applicable only to US Government
 contracts under FAR:
  
                    RESTRICTED RIGHTS LEGEND
  
 Use, reproduction and disclosure by the US Government is
 subject to restrictions as set forth in subparagraphs (a)
 and (c) of the Commercial Computer Software - Restricted
 Rights clause in FAR 52.227-19.
  
 Gaussian, Inc.
 340 Quinnipiac St., Bldg. 40, Wallingford CT 06492
  
  
 ---------------------------------------------------------------
 Warning -- This program may not be used in any manner that
 competes with the business of Gaussian, Inc. or will provide
 assistance to any competitor of Gaussian, Inc.  The licensee
 of this program is prohibited from giving any competitor of
 Gaussian, Inc. access to this program.  By using this program,
 the user acknowledges that Gaussian, Inc. is engaged in the
 business of creating and licensing software in the field of
 computational chemistry and represents and warrants to the
 licensee that it is not a competitor of Gaussian, Inc. and that
 it will not use this program in any manner prohibited above.
 ---------------------------------------------------------------
  

 Cite this work as:
 Gaussian 16, Revision B.01,
 M. J. Frisch, G. W. Trucks, H. B. Schlegel, G. E. Scuseria, 
 M. A. Robb, J. R. Cheeseman, G. Scalmani, V. Barone, 
 G. A. Petersson, H. Nakatsuji, X. Li, M. Caricato, A. V. Marenich, 
 J. Bloino, B. G. Janesko, R. Gomperts, B. Mennucci, H. P. Hratchian, 
 J. V. Ortiz, A. F. Izmaylov, J. L. Sonnenberg, D. Williams-Young, 
 F. Ding, F. Lipparini, F. Egidi, J. Goings, B. Peng, A. Petrone, 
 T. Henderson, D. Ranasinghe, V. G. Zakrzewski, J. Gao, N. Rega, 
 G. Zheng, W. Liang, M. Hada, M. Ehara, K. Toyota, R. Fukuda, 
 J. Hasegawa, M. Ishida, T. Nakajima, Y. Honda, O. Kitao, H. Nakai, 
 T. Vreven, K. Throssell, J. A. Montgomery, Jr., J. E. Peralta, 
 F. Ogliaro, M. J. Bearpark, J. J. Heyd, E. N. Brothers, K. N. Kudin, 
 V. N. Staroverov, T. A. Keith, R. Kobayashi, J. Normand, 
 K. Raghavachari, A. P. Rendell, J. C. Burant, S. S. Iyengar, 
 J. Tomasi, M. Cossi, J. M. Millam, M. Klene, C. Adamo, R. Cammi, 
 J. W. Ochterski, R. L. Martin, K. Morokuma, O. Farkas, 
 J. B. Foresman, and D. J. Fox, Gaussian, Inc., Wallingford CT, 2016.
 
 ******************************************
 Gaussian 16:  ES64L-G16RevB.01 20-Dec-2017
                10-Aug-2019 
 ******************************************
 %chk=freq.chk
 ----------------------------------------------------------------------
 # freq(hpmodes,intmodes) iop(1/33=3) b3lyp/6-31g(d,p) geom=connectivit
 y iop(7/75=-1)
 ----------------------------------------------------------------------
 1/10=4,18=20,30=1,33=3,38=1,57=2/1,3;
 2/9=110,12=2,17=6,18=5,40=1/2;
 3/5=1,6=6,7=101,11=2,25=1,30=1,71=2,74=-5,140=1/1,2,3;
 4//1;
 5/5=2,38=5,98=1/2;
 8/6=4,10=90,11=11/1;
 11/6=1,8=1,9=11,15=111,16=1/1,2,10;
 10/6=1/2;
 6/7=2,8=2,9=2,10=2,28=1/1;
 7/8=31,10=1,25=1,75=-1/1,2,3,16;
 1/10=4,18=20,30=1,33=3/3;
 99//99;
 ONIOM results not found on unit 2.
 ----
 name
 ----
 TstMul:  ICh=     0
 TstMul:  Mul=     1
 TstMul:  ICh=     0
 TstMul:  Mul=     1
 Symbolic Z-matrix:
 Charge =  0 Multiplicity = 1
 C                     0.        1.09483   0.34751 
 C                     0.        0.7178   -0.95971 
 C                     0.       -0.7178   -0.95971 
 C                     0.       -1.09483   0.34751 
 O                     0.        0.        1.16106 
 H                     0.        2.05067   0.84752 
 H                     0.        1.37305  -1.81861 
 H                     0.       -1.37305  -1.81861 
 H                     0.       -2.05067   0.84752 
 
 RdStrC is calling ZToCFu for IStruc=1 NZ=     9.
                                ZToCFu                                
 ---------------------------------------------------------------------
 Center     Atomic      Atomic             Coordinates (Angstroms)
 Number     Number       Type             X           Y           Z
 ---------------------------------------------------------------------
      1          6           0        0.000000    1.094830    0.347514
      2          6           0        0.000000    0.717798   -0.959707
      3          6           0        0.000000   -0.717798   -0.959707
      4          6           0        0.000000   -1.094830    0.347514
      5          8           0        0.000000    0.000000    1.161063
      6          1           0        0.000000    2.050666    0.847515
      7          1           0        0.000000    1.373054   -1.818605
      8          1           0        0.000000   -1.373054   -1.818605
      9          1           0        0.000000   -2.050666    0.847515
 ---------------------------------------------------------------------
 Connectivity in DoCon:
 I=     1 IAn=  6 IBond, RBType=     2  2.00     5  1.00     6  1.00
 I=     2 IAn=  6 IBond, RBType=     1  2.00     3  1.50     7  1.00
 I=     3 IAn=  6 IBond, RBType=     2  1.50     4  2.00     8  1.00
 I=     4 IAn=  6 IBond, RBType=     3  2.00     5  1.00     9  1.00
 I=     5 IAn=  8 IBond, RBType=     1  1.00     4  1.00
 I=     6 IAn=  1 IBond, RBType=     1  1.00
 I=     7 IAn=  1 IBond, RBType=     2  1.00
 I=     8 IAn=  1 IBond, RBType=     3  1.00
 I=     9 IAn=  1 IBond, RBType=     4  1.00
 After GenITR:
 ITRead=  0  0  0  0  0  0  0  0  0
 MicOpt= -1 -1 -1 -1 -1 -1 -1 -1 -1
 List IsCon N=      9 M=      2:
 I=      1 Vals=      2      2 |      5      1 |      6      1 |
 I=      2 Vals=      1      2 |      3      1 |      7      1 |
 I=      3 Vals=      2      1 |      4      2 |      8      1 |
 I=      4 Vals=      3      2 |      5      1 |      9      1 |
 I=      5 Vals=      1      1 |      4      1 |
 I=      6 Vals=      1      1 |
 I=      7 Vals=      2      1 |
 I=      8 Vals=      3      1 |
 I=      9 Vals=      4      1 |
 Coordinate R1 contains atom 1 which is already in QM block.
 Coordinate R1 contains atom 2 which is already in QM block.
 Coordinate R2 contains atom 1 which is already in QM block.
 Coordinate R2 contains atom 5 which is already in QM block.
 Coordinate R3 contains atom 1 which is already in QM block.
 Coordinate R3 contains atom 6 which is already in QM block.
 Coordinate R4 contains atom 2 which is already in QM block.
 Coordinate R4 contains atom 3 which is already in QM block.
 Coordinate R5 contains atom 2 which is already in QM block.
 Coordinate R5 contains atom 7 which is already in QM block.
 Coordinate R6 contains atom 3 which is already in QM block.
 Coordinate R6 contains atom 4 which is already in QM block.
 Coordinate R7 contains atom 3 which is already in QM block.
 Coordinate R7 contains atom 8 which is already in QM block.
 Coordinate R8 contains atom 4 which is already in QM block.
 Coordinate R8 contains atom 5 which is already in QM block.
 Coordinate R9 contains atom 4 which is already in QM block.
 Coordinate R9 contains atom 9 which is already in QM block.
 Coordinate A1 contains atom 2 which is already in QM block.
 Coordinate A1 contains atom 1 which is already in QM block.
 Coordinate A1 contains atom 1 which is already in QM block.
 Coordinate A2 contains atom 2 which is already in QM block.
 Coordinate A2 contains atom 1 which is already in QM block.
 Coordinate A2 contains atom 1 which is already in QM block.
 Coordinate A3 contains atom 5 which is already in QM block.
 Coordinate A3 contains atom 1 which is already in QM block.
 Coordinate A3 contains atom 1 which is already in QM block.
 Coordinate A4 contains atom 1 which is already in QM block.
 Coordinate A4 contains atom 2 which is already in QM block.
 Coordinate A4 contains atom 2 which is already in QM block.
 Coordinate A5 contains atom 1 which is already in QM block.
 Coordinate A5 contains atom 2 which is already in QM block.
 Coordinate A5 contains atom 2 which is already in QM block.
 Coordinate A6 contains atom 3 which is already in QM block.
 Coordinate A6 contains atom 2 which is already in QM block.
 Coordinate A6 contains atom 2 which is already in QM block.
 Coordinate A7 contains atom 2 which is already in QM block.
 Coordinate A7 contains atom 3 which is already in QM block.
 Coordinate A7 contains atom 3 which is already in QM block.
 Coordinate A8 contains atom 2 which is already in QM block.
 Coordinate A8 contains atom 3 which is already in QM block.
 Coordinate A8 contains atom 3 which is already in QM block.
 Coordinate A9 contains atom 4 which is already in QM block.
 Coordinate A9 contains atom 3 which is already in QM block.
 Coordinate A9 contains atom 3 which is already in QM block.
 Coordinate A10 contains atom 3 which is already in QM block.
 Coordinate A10 contains atom 4 which is already in QM block.
 Coordinate A10 contains atom 4 which is already in QM block.
 Coordinate A11 contains atom 3 which is already in QM block.
 Coordinate A11 contains atom 4 which is already in QM block.
 Coordinate A11 contains atom 4 which is already in QM block.
 Coordinate A12 contains atom 5 which is already in QM block.
 Coordinate A12 contains atom 4 which is already in QM block.
 Coordinate A12 contains atom 4 which is already in QM block.
 Coordinate A13 contains atom 1 which is already in QM block.
 Coordinate A13 contains atom 5 which is already in QM block.
 Coordinate A13 contains atom 5 which is already in QM block.
 Coordinate D1 contains atom 5 which is already in QM block.
 Coordinate D1 contains atom 1 which is already in QM block.
 Coordinate D1 contains atom 2 which is already in QM block.
 Coordinate D1 contains atom 3 which is already in QM block.
 Coordinate D2 contains atom 5 which is already in QM block.
 Coordinate D2 contains atom 1 which is already in QM block.
 Coordinate D2 contains atom 2 which is already in QM block.
 Coordinate D2 contains atom 7 which is already in QM block.
 Coordinate D3 contains atom 6 which is already in QM block.
 Coordinate D3 contains atom 1 which is already in QM block.
 Coordinate D3 contains atom 2 which is already in QM block.
 Coordinate D3 contains atom 3 which is already in QM block.
 Coordinate D4 contains atom 6 which is already in QM block.
 Coordinate D4 contains atom 1 which is already in QM block.
 Coordinate D4 contains atom 2 which is already in QM block.
 Coordinate D4 contains atom 7 which is already in QM block.
 Coordinate D5 contains atom 2 which is already in QM block.
 Coordinate D5 contains atom 1 which is already in QM block.
 Coordinate D5 contains atom 5 which is already in QM block.
 Coordinate D5 contains atom 4 which is already in QM block.
 Coordinate D6 contains atom 6 which is already in QM block.
 Coordinate D6 contains atom 1 which is already in QM block.
 Coordinate D6 contains atom 5 which is already in QM block.
 Coordinate D6 contains atom 4 which is already in QM block.
 Coordinate D7 contains atom 1 which is already in QM block.
 Coordinate D7 contains atom 2 which is already in QM block.
 Coordinate D7 contains atom 3 which is already in QM block.
 Coordinate D7 contains atom 4 which is already in QM block.
 Coordinate D8 contains atom 1 which is already in QM block.
 Coordinate D8 contains atom 2 which is already in QM block.
 Coordinate D8 contains atom 3 which is already in QM block.
 Coordinate D8 contains atom 8 which is already in QM block.
 Coordinate D9 contains atom 7 which is already in QM block.
 Coordinate D9 contains atom 2 which is already in QM block.
 Coordinate D9 contains atom 3 which is already in QM block.
 Coordinate D9 contains atom 4 which is already in QM block.
 Coordinate D10 contains atom 7 which is already in QM block.
 Coordinate D10 contains atom 2 which is already in QM block.
 Coordinate D10 contains atom 3 which is already in QM block.
 Coordinate D10 contains atom 8 which is already in QM block.
 Coordinate D11 contains atom 2 which is already in QM block.
 Coordinate D11 contains atom 3 which is already in QM block.
 Coordinate D11 contains atom 4 which is already in QM block.
 Coordinate D11 contains atom 5 which is already in QM block.
 Coordinate D12 contains atom 2 which is already in QM block.
 Coordinate D12 contains atom 3 which is already in QM block.
 Coordinate D12 contains atom 4 which is already in QM block.
 Coordinate D12 contains atom 9 which is already in QM block.
 Coordinate D13 contains atom 8 which is already in QM block.
 Coordinate D13 contains atom 3 which is already in QM block.
 Coordinate D13 contains atom 4 which is already in QM block.
 Coordinate D13 contains atom 5 which is already in QM block.
 Coordinate D14 contains atom 8 which is already in QM block.
 Coordinate D14 contains atom 3 which is already in QM block.
 Coordinate D14 contains atom 4 which is already in QM block.
 Coordinate D14 contains atom 9 which is already in QM block.
 Coordinate D15 contains atom 3 which is already in QM block.
 Coordinate D15 contains atom 4 which is already in QM block.
 Coordinate D15 contains atom 5 which is already in QM block.
 Coordinate D15 contains atom 1 which is already in QM block.
 Coordinate D16 contains atom 9 which is already in QM block.
 Coordinate D16 contains atom 4 which is already in QM block.
 Coordinate D16 contains atom 5 which is already in QM block.
 Coordinate D16 contains atom 1 which is already in QM block.
 Saved connectivity
 I=     1 IAn=  6 IBond, RBType=     2  2.00     5  1.00     6  1.00
 I=     2 IAn=  6 IBond, RBType=     1  2.00     3  1.50     7  1.00
 I=     3 IAn=  6 IBond, RBType=     2  1.50     4  2.00     8  1.00
 I=     4 IAn=  6 IBond, RBType=     3  2.00     5  1.00     9  1.00
 I=     5 IAn=  8 IBond, RBType=     1  1.00     4  1.00
 I=     6 IAn=  1 IBond, RBType=     1  1.00
 I=     7 IAn=  1 IBond, RBType=     2  1.00
 I=     8 IAn=  1 IBond, RBType=     3  1.00
 I=     9 IAn=  1 IBond, RBType=     4  1.00
 ITRead=  0  0  0  0  0  0  0  0  0
 MicOpt= -1 -1 -1 -1 -1 -1 -1 -1 -1
 NAtoms=      9 NQM=        9 NQMF=       0 NMMI=      0 NMMIF=      0
                NMic=       0 NMicF=      0.
 No MM parameters found.
 Leave Link  101 at Sat Aug 10 16:33:48 2019, MaxMem=  4294967296 cpu:               5.6 elap:               0.4

 GradGradGradGradGradGradGradGradGradGradGradGradGradGradGradGradGradGrad
 Berny optimization.
 GetPCM: File not found, return IValue=0.
 Optmz: redundant internal coordinate code flag= 1
 Initialization pass.
                           ----------------------------
                           !    Initial Parameters    !
                           ! (Angstroms and Degrees)  !
 --------------------------                            --------------------------
 ! Name  Definition              Value          Derivative Info.                !
 --------------------------------------------------------------------------------
 ! R1    R(1,2)                  1.3605         calculate D2E/DX2 analytically  !
 ! R2    R(1,5)                  1.364          calculate D2E/DX2 analytically  !
 ! R3    R(1,6)                  1.0787         calculate D2E/DX2 analytically  !
 ! R4    R(2,3)                  1.4356         calculate D2E/DX2 analytically  !
 ! R5    R(2,7)                  1.0803         calculate D2E/DX2 analytically  !
 ! R6    R(3,4)                  1.3605         calculate D2E/DX2 analytically  !
 ! R7    R(3,8)                  1.0803         calculate D2E/DX2 analytically  !
 ! R8    R(4,5)                  1.364          calculate D2E/DX2 analytically  !
 ! R9    R(4,9)                  1.0787         calculate D2E/DX2 analytically  !
 ! A1    A(2,1,5)              110.5266         calculate D2E/DX2 analytically  !
 ! A2    A(2,1,6)              133.703          calculate D2E/DX2 analytically  !
 ! A3    A(5,1,6)              115.7704         calculate D2E/DX2 analytically  !
 ! A4    A(1,2,3)              106.0888         calculate D2E/DX2 analytically  !
 ! A5    A(1,2,7)              126.5711         calculate D2E/DX2 analytically  !
 ! A6    A(3,2,7)              127.3401         calculate D2E/DX2 analytically  !
 ! A7    A(2,3,4)              106.0888         calculate D2E/DX2 analytically  !
 ! A8    A(2,3,8)              127.3401         calculate D2E/DX2 analytically  !
 ! A9    A(4,3,8)              126.5711         calculate D2E/DX2 analytically  !
 ! A10   A(3,4,5)              110.5266         calculate D2E/DX2 analytically  !
 ! A11   A(3,4,9)              133.703          calculate D2E/DX2 analytically  !
 ! A12   A(5,4,9)              115.7704         calculate D2E/DX2 analytically  !
 ! A13   A(1,5,4)              106.7692         calculate D2E/DX2 analytically  !
 ! D1    D(5,1,2,3)              0.0            calculate D2E/DX2 analytically  !
 ! D2    D(5,1,2,7)            180.0            calculate D2E/DX2 analytically  !
 ! D3    D(6,1,2,3)            180.0            calculate D2E/DX2 analytically  !
 ! D4    D(6,1,2,7)              0.0            calculate D2E/DX2 analytically  !
 ! D5    D(2,1,5,4)              0.0            calculate D2E/DX2 analytically  !
 ! D6    D(6,1,5,4)            180.0            calculate D2E/DX2 analytically  !
 ! D7    D(1,2,3,4)              0.0            calculate D2E/DX2 analytically  !
 ! D8    D(1,2,3,8)            180.0            calculate D2E/DX2 analytically  !
 ! D9    D(7,2,3,4)            180.0            calculate D2E/DX2 analytically  !
 ! D10   D(7,2,3,8)              0.0            calculate D2E/DX2 analytically  !
 ! D11   D(2,3,4,5)              0.0            calculate D2E/DX2 analytically  !
 ! D12   D(2,3,4,9)            180.0            calculate D2E/DX2 analytically  !
 ! D13   D(8,3,4,5)            180.0            calculate D2E/DX2 analytically  !
 ! D14   D(8,3,4,9)              0.0            calculate D2E/DX2 analytically  !
 ! D15   D(3,4,5,1)              0.0            calculate D2E/DX2 analytically  !
 ! D16   D(9,4,5,1)            180.0            calculate D2E/DX2 analytically  !
 --------------------------------------------------------------------------------
 Maximum allowed force set to 1.00D+20.
 Trust Radius=3.00D-01 FncErr=1.00D-07 GrdErr=1.00D-07 EigMax=2.50D+02 EigMin=1.00D-04
 Number of steps in this run=      2 maximum allowed number of steps=      2.
 GradGradGradGradGradGradGradGradGradGradGradGradGradGradGradGradGradGrad

 Leave Link  103 at Sat Aug 10 16:33:48 2019, MaxMem=  4294967296 cpu:               0.6 elap:               0.1
                          Input orientation:                          
 ---------------------------------------------------------------------
 Center     Atomic      Atomic             Coordinates (Angstroms)
 Number     Number       Type             X           Y           Z
 ---------------------------------------------------------------------
      1          6           0        0.000000    1.094830    0.347514
      2          6           0        0.000000    0.717798   -0.959707
      3          6           0        0.000000   -0.717798   -0.959707
      4          6           0        0.000000   -1.094830    0.347514
      5          8           0        0.000000    0.000000    1.161063
      6          1           0        0.000000    2.050666    0.847515
      7          1           0        0.000000    1.373054   -1.818605
      8          1           0        0.000000   -1.373054   -1.818605
      9          1           0        0.000000   -2.050666    0.847515
 ---------------------------------------------------------------------
                    Distance matrix (angstroms):
                    1          2          3          4          5
     1  C    0.000000
     2  C    1.360507   0.000000
     3  C    2.234826   1.435596   0.000000
     4  C    2.189660   2.234826   1.360507   0.000000
     5  O    1.364007   2.238951   2.238951   1.364007   0.000000
     6  H    1.078714   2.245571   3.306122   3.184988   2.074498
     7  H    2.183914   1.080308   2.260391   3.283675   3.280808
     8  H    3.283675   2.260391   1.080308   2.183914   3.280808
     9  H    3.184988   3.306122   2.245571   1.078714   2.074498
                    6          7          8          9
     6  H    0.000000
     7  H    2.750882   0.000000
     8  H    4.339361   2.746108   0.000000
     9  H    4.101332   4.339361   2.750882   0.000000
 Stoichiometry    C4H4O
 Framework group  C2V[C2(O),SGV(C4H4)]
 Deg. of freedom     8
 Full point group                 C2V     NOp   4
 Largest Abelian subgroup         C2V     NOp   4
 Largest concise Abelian subgroup C2      NOp   2
                         Standard orientation:                         
 ---------------------------------------------------------------------
 Center     Atomic      Atomic             Coordinates (Angstroms)
 Number     Number       Type             X           Y           Z
 ---------------------------------------------------------------------
      1          6           0        0.000000    1.094830    0.347514
      2          6           0        0.000000    0.717798   -0.959707
      3          6           0       -0.000000   -0.717798   -0.959707
      4          6           0       -0.000000   -1.094830    0.347514
      5          8           0        0.000000   -0.000000    1.161063
      6          1           0        0.000000    2.050666    0.847515
      7          1           0        0.000000    1.373054   -1.818605
      8          1           0       -0.000000   -1.373054   -1.818605
      9          1           0       -0.000000   -2.050666    0.847515
 ---------------------------------------------------------------------
 Rotational constants (GHZ):           9.4623228           9.2517108           4.6779158
 Standard basis: 6-31G(d,p) (6D, 7F)
 There are    38 symmetry adapted cartesian basis functions of A1  symmetry.
 There are    11 symmetry adapted cartesian basis functions of A2  symmetry.
 There are    13 symmetry adapted cartesian basis functions of B1  symmetry.
 There are    33 symmetry adapted cartesian basis functions of B2  symmetry.
 There are    38 symmetry adapted basis functions of A1  symmetry.
 There are    11 symmetry adapted basis functions of A2  symmetry.
 There are    13 symmetry adapted basis functions of B1  symmetry.
 There are    33 symmetry adapted basis functions of B2  symmetry.
    95 basis functions,   168 primitive gaussians,    95 cartesian basis functions
    18 alpha electrons       18 beta electrons
       nuclear repulsion energy       160.7276976315 Hartrees.
 NAtoms=    9 NActive=    9 NUniq=    5 SFac= 3.24D+00 NAtFMM=   60 NAOKFM=F Big=F
 Integral buffers will be    131072 words long.
 Raffenetti 2 integral format.
 Two-electron integral symmetry is turned on.
 One-electron integrals computed using PRISM.
 NBasis=    95 RedAO= T EigKep=  1.15D-03  NBF=    38    11    13    33
 NBsUse=    95 1.00D-06 EigRej= -1.00D+00 NBFU=    38    11    13    33
 ExpMin= 1.61D-01 ExpMax= 5.48D+03 ExpMxC= 8.25D+02 IAcc=3 IRadAn=         5 AccDes= 0.00D+00
 Harris functional with IExCor=  402 and IRadAn=       5 diagonalized for initial guess.
 HarFok:  IExCor=  402 AccDes= 0.00D+00 IRadAn=         5 IDoV= 1 UseB2=F ITyADJ=14
 ICtDFT=  3500011 ScaDFX=  1.000000  1.000000  1.000000  1.000000
 FoFCou: FMM=F IPFlag=           0 FMFlag=      100000 FMFlg1=           0
         NFxFlg=           0 DoJE=T BraDBF=F KetDBF=T FulRan=T
         wScrn=  0.000000 ICntrl=       500 IOpCl=  0 I1Cent=   200000004 NGrid=           0
         NMat0=    1 NMatS0=      1 NMatT0=    0 NMatD0=    1 NMtDS0=    0 NMtDT0=    0
 Petite list used in FoFCou.
 Initial guess orbital symmetries:
       Occupied  (A1) (A1) (B2) (B2) (A1) (A1) (A1) (B2) (B2) (A1)
                 (A1) (B2) (B2) (B1) (A1) (A1) (B1) (A2)
       Virtual   (B1) (A2) (A1) (B2) (A1) (B2) (B2) (A1) (A1) (B2)
                 (B2) (A1) (B1) (B2) (A1) (A1) (A2) (B1) (B2) (A1)
                 (A2) (B2) (A1) (B2) (A1) (B2) (B1) (A1) (A1) (B2)
                 (B2) (A1) (B1) (B1) (A2) (B2) (A2) (B1) (B2) (A1)
                 (A1) (A1) (A1) (B2) (A1) (B2) (A2) (A1) (B1) (A2)
                 (B2) (B1) (A1) (B1) (A2) (A1) (B2) (B2) (A1) (A2)
                 (B2) (B1) (B2) (A2) (A1) (B2) (A1) (B2) (A1) (B2)
                 (A1) (B2) (A1) (A1) (B2) (A1) (B2)
 The electronic state of the initial guess is 1-A1.
 Keep R1 ints in memory in symmetry-blocked form, NReq=25105911.
 Requested convergence on RMS density matrix=1.00D-08 within 128 cycles.
 Requested convergence on MAX density matrix=1.00D-06.
 Requested convergence on             energy=1.00D-06.
 No special actions if energy rises.
 Integral accuracy reduced to 1.0D-05 until final iterations.
 Initial convergence to 1.0D-05 achieved.  Increase integral accuracy.
 SCF Done:  E(RB3LYP) =  -230.027374649     A.U. after   13 cycles
            NFock= 13  Conv=0.18D-08     -V/T= 2.0093
 DoSCS=F DFT=T ScalE2(SS,OS)=  1.000000  1.000000
 Range of M.O.s used for correlation:     1    95
 NBasis=    95 NAE=    18 NBE=    18 NFC=     0 NFV=     0
 NROrb=     95 NOA=    18 NOB=    18 NVA=    77 NVB=    77
 Symmetrizing basis deriv contribution to polar:
 IMax=3 JMax=2 DiffMx= 0.00D+00
 G2DrvN: will do    10 centers at a time, making    1 passes.
 Calling FoFCou, ICntrl=  3107 FMM=F I1Cent=   0 AccDes= 0.00D+00.
 End of G2Drv F.D. properties file   721 does not exist.
 End of G2Drv F.D. properties file   722 does not exist.
 End of G2Drv F.D. properties file   788 does not exist.
          IDoAtm=111111111
          Differentiating once with respect to electric field.
                with respect to dipole field.
          Differentiating once with respect to nuclear coordinates.
 Keep R1 ints in memory in symmetry-blocked form, NReq=25058446.
          There are    18 degrees of freedom in the 1st order CPHF.  IDoFFX=4 NUNeed=    18.
     18 vectors produced by pass  0 Test12= 7.70D-15 5.56D-09 XBig12= 5.00D+01 4.87D+00.
 AX will form    18 AO Fock derivatives at one time.
     18 vectors produced by pass  1 Test12= 7.70D-15 5.56D-09 XBig12= 1.64D+01 1.12D+00.
     18 vectors produced by pass  2 Test12= 7.70D-15 5.56D-09 XBig12= 3.14D-01 1.25D-01.
     18 vectors produced by pass  3 Test12= 7.70D-15 5.56D-09 XBig12= 1.67D-03 7.78D-03.
     18 vectors produced by pass  4 Test12= 7.70D-15 5.56D-09 XBig12= 5.60D-06 3.91D-04.
     17 vectors produced by pass  5 Test12= 7.70D-15 5.56D-09 XBig12= 7.98D-09 2.02D-05.
      6 vectors produced by pass  6 Test12= 7.70D-15 5.56D-09 XBig12= 8.95D-12 6.09D-07.
      2 vectors produced by pass  7 Test12= 7.70D-15 5.56D-09 XBig12= 1.17D-14 1.62D-08.
 InvSVY:  IOpt=1 It=  1 EMax= 1.78D-15
 Solved reduced A of dimension   115 with    18 vectors.
 Isotropic polarizability for W=    0.000000       37.36 Bohr**3.
 End of Minotr F.D. properties file   721 does not exist.
 End of Minotr F.D. properties file   722 does not exist.
 End of Minotr F.D. properties file   788 does not exist.

 **********************************************************************

            Population analysis using the SCF Density.

 **********************************************************************

 Orbital symmetries:
       Occupied  (A1) (B2) (A1) (A1) (B2) (A1) (A1) (B2) (B2) (A1)
                 (A1) (B1) (B2) (B2) (A1) (A1) (B1) (A2)
       Virtual   (B1) (A2) (A1) (A1) (B2) (B2) (A1) (B2) (A1) (B2)
                 (B2) (A1) (B1) (B2) (A1) (A2) (A1) (B1) (B2) (A1)
                 (A2) (B2) (A1) (B2) (A1) (B2) (B1) (A1) (A1) (B2)
                 (B2) (A1) (B1) (A2) (B1) (B2) (A2) (B1) (B2) (A1)
                 (A1) (A1) (A1) (B2) (A1) (B2) (A2) (B1) (A1) (A2)
                 (B2) (B1) (A1) (B1) (A2) (A1) (B2) (B2) (A1) (A2)
                 (B2) (B1) (B2) (A2) (A1) (B2) (A1) (B2) (A1) (B2)
                 (A1) (B2) (A1) (A1) (B2) (A1) (B2)
 The electronic state is 1-A1.
 Alpha  occ. eigenvalues --  -19.21168 -10.23188 -10.23187 -10.18461 -10.18420
 Alpha  occ. eigenvalues --   -1.10351  -0.79282  -0.73938  -0.59292  -0.56508
 Alpha  occ. eigenvalues --   -0.53596  -0.44202  -0.44101  -0.40667  -0.39285
 Alpha  occ. eigenvalues --   -0.36667  -0.27389  -0.22499
 Alpha virt. eigenvalues --    0.01860   0.07703   0.11788   0.14117   0.15546
 Alpha virt. eigenvalues --    0.16686   0.19556   0.20472   0.31219   0.37697
 Alpha virt. eigenvalues --    0.43204   0.51279   0.53332   0.58063   0.58160
 Alpha virt. eigenvalues --    0.58471   0.59074   0.61468   0.62577   0.67431
 Alpha virt. eigenvalues --    0.67867   0.78629   0.81392   0.82881   0.88876
 Alpha virt. eigenvalues --    0.90321   0.97875   0.98438   1.01307   1.03162
 Alpha virt. eigenvalues --    1.12928   1.13170   1.27220   1.35513   1.36695
 Alpha virt. eigenvalues --    1.38035   1.44497   1.51664   1.52152   1.55937
 Alpha virt. eigenvalues --    1.66554   1.81555   1.86618   1.88312   1.95507
 Alpha virt. eigenvalues --    1.98933   2.00241   2.08070   2.08374   2.17423
 Alpha virt. eigenvalues --    2.18143   2.29896   2.35925   2.38636   2.41344
 Alpha virt. eigenvalues --    2.43994   2.44082   2.49708   2.56768   2.58283
 Alpha virt. eigenvalues --    2.62526   2.67426   2.75562   2.77075   2.82739
 Alpha virt. eigenvalues --    2.96994   3.07579   3.18684   3.21280   3.34120
 Alpha virt. eigenvalues --    3.57943   3.80995   3.96092   4.22913   4.22924
 Alpha virt. eigenvalues --    4.50198   4.77026
          Condensed to atoms (all electrons):
               1          2          3          4          5          6
     1  C    4.770897   0.593213  -0.057901  -0.115436   0.321366   0.386930
     2  C    0.593213   4.856549   0.501926  -0.057901  -0.059397  -0.044471
     3  C   -0.057901   0.501926   4.856549   0.593213  -0.059397   0.003733
     4  C   -0.115436  -0.057901   0.593213   4.770897   0.321366   0.005742
     5  O    0.321366  -0.059397  -0.059397   0.321366   7.951461  -0.038278
     6  H    0.386930  -0.044471   0.003733   0.005742  -0.038278   0.576573
     7  H   -0.039367   0.372891  -0.035314   0.005896   0.003479  -0.000571
     8  H    0.005896  -0.035314   0.372891  -0.039367   0.003479  -0.000125
     9  H    0.005742   0.003733  -0.044471   0.386930  -0.038278  -0.000179
               7          8          9
     1  C   -0.039367   0.005896   0.005742
     2  C    0.372891  -0.035314   0.003733
     3  C   -0.035314   0.372891  -0.044471
     4  C    0.005896  -0.039367   0.386930
     5  O    0.003479   0.003479  -0.038278
     6  H   -0.000571  -0.000125  -0.000179
     7  H    0.600439  -0.002151  -0.000125
     8  H   -0.002151   0.600439  -0.000571
     9  H   -0.000125  -0.000571   0.576573
 Mulliken charges:
               1
     1  C    0.128660
     2  C   -0.131228
     3  C   -0.131228
     4  C    0.128660
     5  O   -0.405802
     6  H    0.110646
     7  H    0.094822
     8  H    0.094822
     9  H    0.110646
 Sum of Mulliken charges =   0.00000
 Mulliken charges with hydrogens summed into heavy atoms:
               1
     1  C    0.239307
     2  C   -0.036406
     3  C   -0.036406
     4  C    0.239307
     5  O   -0.405802
 APT charges:
               1
     1  C    0.146372
     2  C   -0.066559
     3  C   -0.066559
     4  C    0.146372
     5  O   -0.429844
     6  H    0.071960
     7  H    0.063149
     8  H    0.063149
     9  H    0.071960
 Sum of APT charges =  -0.00000
 APT charges with hydrogens summed into heavy atoms:
               1
     1  C    0.218332
     2  C   -0.003410
     3  C   -0.003410
     4  C    0.218332
     5  O   -0.429844
 Electronic spatial extent (au):  <R**2>=            290.1081
 Charge=              0.0000 electrons
 Dipole moment (field-independent basis, Debye):
    X=             -0.0000    Y=             -0.0000    Z=             -0.6302  Tot=              0.6302
 Quadrupole moment (field-independent basis, Debye-Ang):
   XX=            -30.9932   YY=            -23.7311   ZZ=            -27.6674
   XY=              0.0000   XZ=             -0.0000   YZ=              0.0000
 Traceless Quadrupole moment (field-independent basis, Debye-Ang):
   XX=             -3.5293   YY=              3.7328   ZZ=             -0.2035
   XY=              0.0000   XZ=             -0.0000   YZ=              0.0000
 Octapole moment (field-independent basis, Debye-Ang**2):
  XXX=              0.0000  YYY=              0.0000  ZZZ=             -1.3706  XYY=              0.0000
  XXY=             -0.0000  XXZ=              2.9987  XZZ=              0.0000  YZZ=             -0.0000
  YYZ=              4.1162  XYZ=              0.0000
 Hexadecapole moment (field-independent basis, Debye-Ang**3):
 XXXX=            -30.2565 YYYY=           -161.5026 ZZZZ=           -161.8740 XXXY=             -0.0000
 XXXZ=             -0.0000 YYYX=             -0.0000 YYYZ=             -0.0000 ZZZX=             -0.0000
 ZZZY=             -0.0000 XXYY=            -38.9991 XXZZ=            -34.6613 YYZZ=            -47.6681
 XXYZ=              0.0000 YYXZ=             -0.0000 ZZXY=             -0.0000
 N-N= 1.607276976315D+02 E-N=-8.570957100815D+02  KE= 2.278981553558D+02
 Symmetry A1   KE= 1.428690359910D+02
 Symmetry A2   KE= 2.432547229984D+00
 Symmetry B1   KE= 6.311654039654D+00
 Symmetry B2   KE= 7.628491809522D+01
  Exact polarizability:  17.472   0.000  49.060  -0.000  -0.000  45.540
 Approx polarizability:  25.777   0.000  74.330  -0.000   0.000  79.863
 Calling FoFJK, ICntrl=    100127 FMM=F ISym2X=1 I1Cent= 0 IOpClX= 0 NMat=1 NMatS=1 NMatT=0.
 Full mass-weighted force constant matrix:
 Low frequencies ---   -9.3558   -8.5819   -0.0013   -0.0005    0.0004    7.3819
 Low frequencies ---  614.2060  622.9305  727.7494
 Diagonal vibrational polarizability:
        4.8388553       0.3755005       2.0406974
 Harmonic frequencies (cm**-1), IR intensities (KM/Mole), Raman scattering
 activities (A**4/AMU), depolarization ratios for plane and unpolarized
 incident light, reduced masses (AMU), force constants (mDyne/A),
 and normal coordinates:
                           1         2         3         4         5
                          A2        B1        A2        B1        B1
       Frequencies ---   614.2060  622.9305  727.7494  760.5742  838.3114
    Reduced masses ---     3.0689    3.7633    1.3143    1.2384    1.2567
   Force constants ---     0.6821    0.8604    0.4101    0.4221    0.5204
    IR Intensities ---     0.0000   17.4341    0.0000   77.7843    0.2918
 Coord Atom Element:
   1     1     6         -0.15414  -0.24078  -0.11622  -0.08750   0.06644
   2     1     6          0.00000  -0.00000  -0.00000   0.00000   0.00000
   3     1     6         -0.00000  -0.00000   0.00000   0.00000   0.00000
   1     2     6          0.26456   0.10549  -0.02088  -0.03072  -0.08223
   2     2     6         -0.00000  -0.00000   0.00000  -0.00000  -0.00000
   3     2     6          0.00000  -0.00000  -0.00000   0.00000   0.00000
   1     3     6         -0.26456   0.10549   0.02088  -0.03072  -0.08223
   2     3     6          0.00000  -0.00000  -0.00000  -0.00000  -0.00000
   3     3     6          0.00000   0.00000  -0.00000  -0.00000  -0.00000
   1     4     6          0.15414  -0.24078   0.11622  -0.08750   0.06644
   2     4     6         -0.00000   0.00000   0.00000   0.00000   0.00000
   3     4     6         -0.00000  -0.00000   0.00000  -0.00000  -0.00000
   1     5     8         -0.00000   0.28722   0.00000   0.05263   0.01463
   2     5     8         -0.00000  -0.00000  -0.00000   0.00000   0.00000
   3     5     8         -0.00000  -0.00000   0.00000   0.00000  -0.00000
   1     6     1         -0.43480  -0.62255   0.63876   0.49754  -0.45710
   2     6     1         -0.00000  -0.00000  -0.00000   0.00000   0.00000
   3     6     1         -0.00000   0.00000   0.00000  -0.00000  -0.00000
   1     7     1          0.46605  -0.04568   0.27937   0.49242   0.52894
   2     7     1         -0.00000   0.00000   0.00000  -0.00000  -0.00000
   3     7     1          0.00000  -0.00000  -0.00000   0.00000   0.00000
   1     8     1         -0.46605  -0.04568  -0.27937   0.49242   0.52894
   2     8     1          0.00000   0.00000  -0.00000  -0.00000  -0.00000
   3     8     1          0.00000   0.00000  -0.00000  -0.00000  -0.00000
   1     9     1          0.43480  -0.62255  -0.63876   0.49754  -0.45710
   2     9     1          0.00000   0.00000  -0.00000   0.00000   0.00000
   3     9     1         -0.00000  -0.00000   0.00000  -0.00000   0.00000
                           6         7         8         9        10
                          A2        A1        B2        A1        B2
       Frequencies ---   878.8601  885.8611  889.8511 1022.4752 1071.0308
    Reduced masses ---     1.2950    4.8899    6.0158    1.4636    1.5979
   Force constants ---     0.5893    2.2609    2.8066    0.9015    1.0800
    IR Intensities ---     0.0000   15.6561    0.3677   37.4286    1.1479
 Coord Atom Element:
   1     1     6          0.03951  -0.00000  -0.00000  -0.00000  -0.00000
   2     1     6         -0.00000  -0.22384   0.16350  -0.07216  -0.12673
   3     1     6         -0.00000  -0.07112   0.18054   0.03210  -0.03390
   1     2     6         -0.10724   0.00000   0.00000   0.00000   0.00000
   2     2     6         -0.00000  -0.02884  -0.26133   0.08692   0.01152
   3     2     6         -0.00000  -0.15255   0.29898  -0.01021   0.03290
   1     3     6          0.10724  -0.00000   0.00000  -0.00000   0.00000
   2     3     6         -0.00000   0.02884  -0.26133  -0.08692   0.01152
   3     3     6         -0.00000  -0.15255  -0.29898  -0.01021  -0.03290
   1     4     6         -0.03951   0.00000  -0.00000   0.00000  -0.00000
   2     4     6          0.00000   0.22384   0.16350   0.07216  -0.12673
   3     4     6         -0.00000  -0.07112  -0.18054   0.03210   0.03390
   1     5     8         -0.00000  -0.00000  -0.00000  -0.00000   0.00000
   2     5     8          0.00000   0.00000   0.12576  -0.00000   0.11111
   3     5     8          0.00000   0.37783  -0.00000  -0.10013   0.00000
   1     6     1         -0.24234   0.00000   0.00000   0.00000  -0.00000
   2     6     1         -0.00000  -0.02750   0.30074  -0.15951   0.04274
   3     6     1         -0.00000  -0.46240  -0.06902   0.19593  -0.36931
   1     7     1          0.65438  -0.00000  -0.00000  -0.00000  -0.00000
   2     7     1          0.00000   0.34434  -0.13385   0.55047   0.44737
   3     7     1          0.00000   0.12735   0.40243   0.33801   0.37019
   1     8     1         -0.65438   0.00000  -0.00000   0.00000   0.00000
   2     8     1         -0.00000  -0.34434  -0.13385  -0.55047   0.44737
   3     8     1          0.00000   0.12735  -0.40243   0.33801  -0.37019
   1     9     1          0.24234  -0.00000   0.00000   0.00000  -0.00000
   2     9     1          0.00000   0.02750   0.30074   0.15951   0.04274
   3     9     1         -0.00000  -0.46240   0.06902   0.19593   0.36931
                          11        12        13        14        15
                          A1        A1        B2        B2        A1
       Frequencies ---  1098.4249 1172.5702 1220.5420 1295.9205 1429.7487
    Reduced masses ---     2.8919    1.7937    2.8552    1.2609    2.9755
   Force constants ---     2.0558    1.4531    2.5060    1.2477    3.5837
    IR Intensities ---    12.0384    0.3440   17.4705    0.1607    3.7061
 Coord Atom Element:
   1     1     6         -0.00000  -0.00000  -0.00000  -0.00000   0.00000
   2     1     6          0.22749   0.04114  -0.14032   0.04502  -0.13422
   3     1     6         -0.06057   0.03971   0.12150  -0.06627   0.00146
   1     2     6          0.00000   0.00000   0.00000  -0.00000   0.00000
   2     2     6          0.14986   0.10532   0.01110  -0.06273   0.24885
   3     2     6          0.00141  -0.12323  -0.01238  -0.03085   0.09125
   1     3     6         -0.00000  -0.00000   0.00000  -0.00000  -0.00000
   2     3     6         -0.14986  -0.10532   0.01110  -0.06273  -0.24885
   3     3     6          0.00141  -0.12323   0.01238   0.03085   0.09125
   1     4     6         -0.00000   0.00000  -0.00000  -0.00000   0.00000
   2     4     6         -0.22749  -0.04114  -0.14032   0.04502   0.13422
   3     4     6         -0.06057   0.03971  -0.12150   0.06627   0.00146
   1     5     8          0.00000   0.00000   0.00000   0.00000  -0.00000
   2     5     8         -0.00000  -0.00000   0.26892   0.01742   0.00000
   3     5     8          0.10711   0.09537   0.00000  -0.00000  -0.04256
   1     6     1         -0.00000  -0.00000  -0.00000  -0.00000  -0.00000
   2     6     1          0.37673  -0.21450  -0.30024  -0.25164   0.05611
   3     6     1         -0.31020   0.55368   0.44078   0.50105  -0.40252
   1     7     1         -0.00000  -0.00000  -0.00000   0.00000  -0.00000
   2     7     1          0.38874  -0.11610  -0.29514   0.32430  -0.33682
   3     7     1          0.16467  -0.31600  -0.23994   0.26267  -0.36360
   1     8     1          0.00000   0.00000  -0.00000   0.00000   0.00000
   2     8     1         -0.38874   0.11610  -0.29514   0.32430   0.33682
   3     8     1          0.16467  -0.31600   0.23994  -0.26267  -0.36360
   1     9     1         -0.00000   0.00000  -0.00000  -0.00000   0.00000
   2     9     1         -0.37673   0.21450  -0.30024  -0.25164  -0.05611
   3     9     1         -0.31020   0.55368  -0.44078  -0.50105  -0.40252
                          16        17        18        19        20
                          A1        B2        B2        A1        B2
       Frequencies ---  1528.6763 1613.3291 3259.7440 3270.4395 3293.8420
    Reduced masses ---     3.4546    4.5787    1.0889    1.0942    1.1007
   Force constants ---     4.7564    7.0216    6.8174    6.8954    7.0359
    IR Intensities ---    18.5079    0.5450    2.8016    1.2640    2.0856
 Coord Atom Element:
   1     1     6         -0.00000  -0.00000  -0.00000   0.00000   0.00000
   2     1     6          0.00776  -0.04147  -0.01551  -0.02256  -0.05169
   3     1     6          0.27678  -0.26017  -0.00724  -0.00930  -0.03233
   1     2     6          0.00000   0.00000   0.00000  -0.00000  -0.00000
   2     2     6         -0.02225   0.10083   0.03367   0.03603  -0.00882
   3     2     6         -0.17066   0.28776  -0.04756  -0.04511   0.02073
   1     3     6         -0.00000   0.00000   0.00000   0.00000  -0.00000
   2     3     6          0.02225   0.10083   0.03367  -0.03603  -0.00882
   3     3     6         -0.17066  -0.28776   0.04756  -0.04511  -0.02073
   1     4     6          0.00000  -0.00000  -0.00000  -0.00000   0.00000
   2     4     6         -0.00776  -0.04147  -0.01551   0.02256  -0.05169
   3     4     6          0.27678   0.26017   0.00724  -0.00930   0.03233
   1     5     8          0.00000   0.00000   0.00000   0.00000  -0.00000
   2     5     8         -0.00000   0.00832  -0.00130   0.00000   0.00006
   3     5     8         -0.08573  -0.00000  -0.00000   0.00065   0.00000
   1     6     1         -0.00000  -0.00000   0.00000   0.00000   0.00000
   2     6     1          0.41675  -0.32447   0.19692   0.26566   0.59221
   3     6     1         -0.43631   0.16027   0.10047   0.13639   0.31302
   1     7     1         -0.00000  -0.00000  -0.00000   0.00000   0.00000
   2     7     1          0.06654  -0.44827  -0.40276  -0.38799   0.12784
   3     7     1         -0.14685  -0.07530   0.53407   0.50632  -0.17533
   1     8     1          0.00000  -0.00000  -0.00000  -0.00000   0.00000
   2     8     1         -0.06654  -0.44827  -0.40276   0.38799   0.12784
   3     8     1         -0.14685   0.07530  -0.53407   0.50632   0.17533
   1     9     1          0.00000  -0.00000   0.00000  -0.00000   0.00000
   2     9     1         -0.41675  -0.32447   0.19692  -0.26566   0.59221
   3     9     1         -0.43631  -0.16027  -0.10047   0.13639  -0.31302
                          21
                          A1
       Frequencies ---  3300.1430
    Reduced masses ---     1.1087
   Force constants ---     7.1141
    IR Intensities ---     0.0015
 Coord Atom Element:
   1     1     6         -0.00000
   2     1     6         -0.05251
   3     1     6         -0.03026
   1     2     6          0.00000
   2     2     6         -0.01643
   3     2     6          0.02537
   1     3     6         -0.00000
   2     3     6          0.01643
   3     3     6          0.02537
   1     4     6         -0.00000
   2     4     6          0.05251
   3     4     6         -0.03026
   1     5     8          0.00000
   2     5     8          0.00000
   3     5     8         -0.00068
   1     6     1         -0.00000
   2     6     1          0.56508
   3     6     1          0.29916
   1     7     1          0.00000
   2     7     1          0.17643
   3     7     1         -0.23551
   1     8     1          0.00000
   2     8     1         -0.17643
   3     8     1         -0.23551
   1     9     1          0.00000
   2     9     1         -0.56508
   3     9     1          0.29916
 Harmonic frequencies (cm**-1), IR intensities (KM/Mole), Raman scattering
 activities (A**4/AMU), depolarization ratios for plane and unpolarized
 incident light, reduced masses (AMU), force constants (mDyne/A),
 and normal coordinates:
                      1                      2                      3
                     A2                     B1                     A2
 Frequencies --    614.2060               622.9305               727.7494
 Red. masses --      3.0689                 3.7633                 1.3143
 Frc consts  --      0.6821                 0.8604                 0.4101
 IR Inten    --      0.0000                17.4341                 0.0000
  Atom  AN      X      Y      Z        X      Y      Z        X      Y      Z
     1   6    -0.15   0.00  -0.00    -0.24  -0.00  -0.00    -0.12  -0.00   0.00
     2   6     0.26  -0.00   0.00     0.11  -0.00  -0.00    -0.02   0.00  -0.00
     3   6    -0.26   0.00   0.00     0.11  -0.00   0.00     0.02  -0.00  -0.00
     4   6     0.15  -0.00  -0.00    -0.24   0.00  -0.00     0.12   0.00   0.00
     5   8    -0.00  -0.00  -0.00     0.29  -0.00  -0.00     0.00  -0.00   0.00
     6   1    -0.43  -0.00  -0.00    -0.62  -0.00   0.00     0.64  -0.00   0.00
     7   1     0.47  -0.00   0.00    -0.05   0.00  -0.00     0.28   0.00  -0.00
     8   1    -0.47   0.00   0.00    -0.05   0.00   0.00    -0.28  -0.00  -0.00
     9   1     0.43   0.00  -0.00    -0.62   0.00  -0.00    -0.64  -0.00   0.00
                      4                      5                      6
                     B1                     B1                     A2
 Frequencies --    760.5742               838.3114               878.8601
 Red. masses --      1.2384                 1.2567                 1.2950
 Frc consts  --      0.4221                 0.5204                 0.5893
 IR Inten    --     77.7843                 0.2918                 0.0000
  Atom  AN      X      Y      Z        X      Y      Z        X      Y      Z
     1   6    -0.09   0.00   0.00     0.07   0.00   0.00     0.04  -0.00  -0.00
     2   6    -0.03  -0.00   0.00    -0.08  -0.00   0.00    -0.11  -0.00  -0.00
     3   6    -0.03  -0.00  -0.00    -0.08  -0.00  -0.00     0.11  -0.00  -0.00
     4   6    -0.09   0.00  -0.00     0.07   0.00  -0.00    -0.04   0.00  -0.00
     5   8     0.05   0.00   0.00     0.01   0.00  -0.00    -0.00   0.00   0.00
     6   1     0.50   0.00  -0.00    -0.46   0.00  -0.00    -0.24  -0.00  -0.00
     7   1     0.49  -0.00   0.00     0.53  -0.00   0.00     0.65   0.00   0.00
     8   1     0.49  -0.00  -0.00     0.53  -0.00  -0.00    -0.65  -0.00   0.00
     9   1     0.50   0.00  -0.00    -0.46   0.00   0.00     0.24   0.00  -0.00
                      7                      8                      9
                     A1                     B2                     A1
 Frequencies --    885.8611               889.8511              1022.4752
 Red. masses --      4.8899                 6.0158                 1.4636
 Frc consts  --      2.2609                 2.8066                 0.9015
 IR Inten    --     15.6561                 0.3677                37.4286
  Atom  AN      X      Y      Z        X      Y      Z        X      Y      Z
     1   6    -0.00  -0.22  -0.07    -0.00   0.16   0.18    -0.00  -0.07   0.03
     2   6     0.00  -0.03  -0.15     0.00  -0.26   0.30     0.00   0.09  -0.01
     3   6    -0.00   0.03  -0.15     0.00  -0.26  -0.30    -0.00  -0.09  -0.01
     4   6     0.00   0.22  -0.07    -0.00   0.16  -0.18     0.00   0.07   0.03
     5   8    -0.00   0.00   0.38    -0.00   0.13  -0.00    -0.00  -0.00  -0.10
     6   1     0.00  -0.03  -0.46     0.00   0.30  -0.07     0.00  -0.16   0.20
     7   1    -0.00   0.34   0.13    -0.00  -0.13   0.40    -0.00   0.55   0.34
     8   1     0.00  -0.34   0.13    -0.00  -0.13  -0.40     0.00  -0.55   0.34
     9   1    -0.00   0.03  -0.46     0.00   0.30   0.07     0.00   0.16   0.20
                     10                     11                     12
                     B2                     A1                     A1
 Frequencies --   1071.0308              1098.4249              1172.5702
 Red. masses --      1.5979                 2.8919                 1.7937
 Frc consts  --      1.0800                 2.0558                 1.4531
 IR Inten    --      1.1479                12.0384                 0.3440
  Atom  AN      X      Y      Z        X      Y      Z        X      Y      Z
     1   6    -0.00  -0.13  -0.03    -0.00   0.23  -0.06    -0.00   0.04   0.04
     2   6     0.00   0.01   0.03     0.00   0.15   0.00     0.00   0.11  -0.12
     3   6     0.00   0.01  -0.03    -0.00  -0.15   0.00    -0.00  -0.11  -0.12
     4   6    -0.00  -0.13   0.03    -0.00  -0.23  -0.06     0.00  -0.04   0.04
     5   8     0.00   0.11   0.00     0.00  -0.00   0.11     0.00  -0.00   0.10
     6   1    -0.00   0.04  -0.37    -0.00   0.38  -0.31    -0.00  -0.21   0.55
     7   1    -0.00   0.45   0.37    -0.00   0.39   0.16    -0.00  -0.12  -0.32
     8   1     0.00   0.45  -0.37     0.00  -0.39   0.16     0.00   0.12  -0.32
     9   1    -0.00   0.04   0.37    -0.00  -0.38  -0.31     0.00   0.21   0.55
                     13                     14                     15
                     B2                     B2                     A1
 Frequencies --   1220.5420              1295.9205              1429.7487
 Red. masses --      2.8552                 1.2609                 2.9755
 Frc consts  --      2.5060                 1.2477                 3.5837
 IR Inten    --     17.4705                 0.1607                 3.7061
  Atom  AN      X      Y      Z        X      Y      Z        X      Y      Z
     1   6    -0.00  -0.14   0.12    -0.00   0.05  -0.07     0.00  -0.13   0.00
     2   6     0.00   0.01  -0.01    -0.00  -0.06  -0.03     0.00   0.25   0.09
     3   6     0.00   0.01   0.01    -0.00  -0.06   0.03    -0.00  -0.25   0.09
     4   6    -0.00  -0.14  -0.12    -0.00   0.05   0.07     0.00   0.13   0.00
     5   8     0.00   0.27   0.00     0.00   0.02  -0.00    -0.00   0.00  -0.04
     6   1    -0.00  -0.30   0.44    -0.00  -0.25   0.50    -0.00   0.06  -0.40
     7   1    -0.00  -0.30  -0.24     0.00   0.32   0.26    -0.00  -0.34  -0.36
     8   1    -0.00  -0.30   0.24     0.00   0.32  -0.26     0.00   0.34  -0.36
     9   1    -0.00  -0.30  -0.44    -0.00  -0.25  -0.50     0.00  -0.06  -0.40
                     16                     17                     18
                     A1                     B2                     B2
 Frequencies --   1528.6763              1613.3291              3259.7440
 Red. masses --      3.4546                 4.5787                 1.0889
 Frc consts  --      4.7564                 7.0216                 6.8174
 IR Inten    --     18.5079                 0.5450                 2.8016
  Atom  AN      X      Y      Z        X      Y      Z        X      Y      Z
     1   6    -0.00   0.01   0.28    -0.00  -0.04  -0.26    -0.00  -0.02  -0.01
     2   6     0.00  -0.02  -0.17     0.00   0.10   0.29     0.00   0.03  -0.05
     3   6    -0.00   0.02  -0.17     0.00   0.10  -0.29     0.00   0.03   0.05
     4   6     0.00  -0.01   0.28    -0.00  -0.04   0.26    -0.00  -0.02   0.01
     5   8     0.00  -0.00  -0.09     0.00   0.01  -0.00     0.00  -0.00  -0.00
     6   1    -0.00   0.42  -0.44    -0.00  -0.32   0.16     0.00   0.20   0.10
     7   1    -0.00   0.07  -0.15    -0.00  -0.45  -0.08    -0.00  -0.40   0.53
     8   1     0.00  -0.07  -0.15    -0.00  -0.45   0.08    -0.00  -0.40  -0.53
     9   1     0.00  -0.42  -0.44    -0.00  -0.32  -0.16     0.00   0.20  -0.10
                     19                     20                     21
                     A1                     B2                     A1
 Frequencies --   3270.4395              3293.8420              3300.1430
 Red. masses --      1.0942                 1.1007                 1.1087
 Frc consts  --      6.8954                 7.0359                 7.1141
 IR Inten    --      1.2640                 2.0856                 0.0015
  Atom  AN      X      Y      Z        X      Y      Z        X      Y      Z
     1   6     0.00  -0.02  -0.01     0.00  -0.05  -0.03    -0.00  -0.05  -0.03
     2   6    -0.00   0.04  -0.05    -0.00  -0.01   0.02     0.00  -0.02   0.03
     3   6     0.00  -0.04  -0.05    -0.00  -0.01  -0.02    -0.00   0.02   0.03
     4   6    -0.00   0.02  -0.01     0.00  -0.05   0.03    -0.00   0.05  -0.03
     5   8     0.00   0.00   0.00    -0.00   0.00   0.00     0.00   0.00  -0.00
     6   1     0.00   0.27   0.14     0.00   0.59   0.31    -0.00   0.57   0.30
     7   1     0.00  -0.39   0.51     0.00   0.13  -0.18     0.00   0.18  -0.24
     8   1    -0.00   0.39   0.51     0.00   0.13   0.18     0.00  -0.18  -0.24
     9   1    -0.00  -0.27   0.14     0.00   0.59  -0.31     0.00  -0.57   0.30

 -------------------
 - Thermochemistry -
 -------------------
 Temperature   298.150 Kelvin.  Pressure   1.00000 Atm.
 Atom     1 has atomic number  6 and mass  12.00000
 Atom     2 has atomic number  6 and mass  12.00000
 Atom     3 has atomic number  6 and mass  12.00000
 Atom     4 has atomic number  6 and mass  12.00000
 Atom     5 has atomic number  8 and mass  15.99491
 Atom     6 has atomic number  1 and mass   1.00783
 Atom     7 has atomic number  1 and mass   1.00783
 Atom     8 has atomic number  1 and mass   1.00783
 Atom     9 has atomic number  1 and mass   1.00783
 Molecular mass:    68.02621 amu.
 Principal axes and moments of inertia in atomic units:
                           1         2         3
     Eigenvalues --   190.72920 195.07108 385.80027
           X            0.00000   0.00000   1.00000
           Y            0.00000   1.00000   0.00000
           Z            1.00000   0.00000   0.00000
 This molecule is an asymmetric top.
 Rotational symmetry number  2.
 Rotational temperatures (Kelvin)      0.45412     0.44401     0.22450
 Rotational constants (GHZ):           9.46232     9.25171     4.67792
 Zero-point vibrational energy     184196.4 (Joules/Mol)
                                   44.02399 (Kcal/Mol)
 Warning -- explicit consideration of   1 degrees of freedom as
           vibrations may cause significant error
 Vibrational temperatures:    883.71   896.26  1047.07  1094.30  1206.14
          (Kelvin)           1264.48  1274.56  1280.30  1471.11  1540.97
                             1580.39  1687.07  1756.09  1864.54  2057.09
                             2199.42  2321.22  4690.04  4705.43  4739.10
                             4748.17
 
 Zero-point correction=                           0.070157 (Hartree/Particle)
 Thermal correction to Energy=                    0.073868
 Thermal correction to Enthalpy=                  0.074812
 Thermal correction to Gibbs Free Energy=         0.044541
 Sum of electronic and zero-point Energies=           -229.957218
 Sum of electronic and thermal Energies=              -229.953507
 Sum of electronic and thermal Enthalpies=            -229.952563
 Sum of electronic and thermal Free Energies=         -229.982834
 
                     E (Thermal)             CV                S
                      KCal/Mol        Cal/Mol-Kelvin    Cal/Mol-Kelvin
 Total                   46.353             13.314             63.711
 Electronic               0.000              0.000              0.000
 Translational            0.889              2.981             38.570
 Rotational               0.889              2.981             22.800
 Vibrational             44.575              7.353              2.342
 Vibration     1          0.974              1.002              0.426
                       Q            Log10(Q)             Ln(Q)
 Total Bot       0.325559D-20        -20.487370        -47.173913
 Total V=0       0.605956D+12         11.782441         27.130073
 Vib (Bot)       0.688429D-32        -32.162141        -74.056065
 Vib (Bot)    1  0.239551D+00         -0.620601         -1.428988
 Vib (V=0)       0.128136D+01          0.107671          0.247922
 Vib (V=0)    1  0.105442D+01          0.023015          0.052994
 Electronic      0.100000D+01          0.000000          0.000000
 Translational   0.220530D+08          7.343468         16.908961
 Rotational      0.214438D+05          4.331302          9.973191
                           ----------------------------
                           ! Normal Mode     1        !
 --------------------------                            --------------------------
 ! Name  Definition              Value          Relative Weight (%)             !
 --------------------------------------------------------------------------------
 ! R1    R(1,2)                  0.0                     0.0                    !
 ! R2    R(1,5)                  0.0                     0.0                    !
 ! R3    R(1,6)                  0.0                     0.0                    !
 ! R4    R(2,3)                  0.0                     0.0                    !
 ! R5    R(2,7)                  0.0                     0.0                    !
 ! R6    R(3,4)                  0.0                     0.0                    !
 ! R7    R(3,8)                  0.0                     0.0                    !
 ! R8    R(4,5)                  0.0                     0.0                    !
 ! R9    R(4,9)                  0.0                     0.0                    !
 ! A1    A(2,1,5)                0.0                     0.0                    !
 ! A2    A(2,1,6)                0.0                     0.0                    !
 ! A3    A(5,1,6)                0.0                     0.0                    !
 ! A4    A(1,2,3)                0.0                     0.0                    !
 ! A5    A(1,2,7)                0.0                     0.0                    !
 ! A6    A(3,2,7)                0.0                     0.0                    !
 ! A7    A(2,3,4)                0.0                     0.0                    !
 ! A8    A(2,3,8)                0.0                     0.0                    !
 ! A9    A(4,3,8)                0.0                     0.0                    !
 ! A10   A(3,4,5)                0.0                     0.0                    !
 ! A11   A(3,4,9)                0.0                     0.0                    !
 ! A12   A(5,4,9)                0.0                     0.0                    !
 ! A13   A(1,5,4)                0.0                     0.0                    !
 ! D1    D(5,1,2,3)              0.3748                 12.4                    !
 ! D2    D(5,1,2,7)              0.1269                  4.2                    !
 ! D3    D(6,1,2,3)              0.2848                  9.5                    !
 ! D4    D(6,1,2,7)              0.0369                  1.2                    !
 ! D5    D(2,1,5,4)             -0.1519                  5.0                    !
 ! D6    D(6,1,5,4)             -0.0796                  2.6                    !
 ! D7    D(1,2,3,4)             -0.4515                 15.0                    !
 ! D8    D(1,2,3,8)             -0.2011                  6.7                    !
 ! D9    D(7,2,3,4)             -0.2011                  6.7                    !
 ! D10   D(7,2,3,8)              0.0493                  1.6                    !
 ! D11   D(2,3,4,5)              0.3748                 12.4                    !
 ! D12   D(2,3,4,9)              0.2848                  9.5                    !
 ! D13   D(8,3,4,5)              0.1269                  4.2                    !
 ! D14   D(8,3,4,9)              0.0369                  1.2                    !
 ! D15   D(3,4,5,1)             -0.1519                  5.0                    !
 ! D16   D(9,4,5,1)             -0.0796                  2.6                    !
 --------------------------------------------------------------------------------
                           ----------------------------
                           ! Normal Mode     2        !
 --------------------------                            --------------------------
 ! Name  Definition              Value          Relative Weight (%)             !
 --------------------------------------------------------------------------------
 ! R1    R(1,2)                  0.0                     0.0                    !
 ! R2    R(1,5)                  0.0                     0.0                    !
 ! R3    R(1,6)                  0.0                     0.0                    !
 ! R4    R(2,3)                  0.0                     0.0                    !
 ! R5    R(2,7)                  0.0                     0.0                    !
 ! R6    R(3,4)                  0.0                     0.0                    !
 ! R7    R(3,8)                  0.0                     0.0                    !
 ! R8    R(4,5)                  0.0                     0.0                    !
 ! R9    R(4,9)                  0.0                     0.0                    !
 ! A1    A(2,1,5)                0.0                     0.0                    !
 ! A2    A(2,1,6)                0.0                     0.0                    !
 ! A3    A(5,1,6)                0.0                     0.0                    !
 ! A4    A(1,2,3)                0.0                     0.0                    !
 ! A5    A(1,2,7)                0.0                     0.0                    !
 ! A6    A(3,2,7)                0.0                     0.0                    !
 ! A7    A(2,3,4)                0.0                     0.0                    !
 ! A8    A(2,3,8)                0.0                     0.0                    !
 ! A9    A(4,3,8)                0.0                     0.0                    !
 ! A10   A(3,4,5)                0.0                     0.0                    !
 ! A11   A(3,4,9)                0.0                     0.0                    !
 ! A12   A(5,4,9)                0.0                     0.0                    !
 ! A13   A(1,5,4)                0.0                     0.0                    !
 ! D1    D(5,1,2,3)              0.308                   8.9                    !
 ! D2    D(5,1,2,7)              0.077                   2.2                    !
 ! D3    D(6,1,2,3)              0.1692                  4.9                    !
 ! D4    D(6,1,2,7)             -0.0618                  1.8                    !
 ! D5    D(2,1,5,4)             -0.4962                 14.3                    !
 ! D6    D(6,1,5,4)             -0.3847                 11.1                    !
 ! D7    D(1,2,3,4)              0.0                     0.0                    !
 ! D8    D(1,2,3,8)             -0.2333                  6.7                    !
 ! D9    D(7,2,3,4)              0.2333                  6.7                    !
 ! D10   D(7,2,3,8)              0.0                     0.0                    !
 ! D11   D(2,3,4,5)             -0.308                   8.9                    !
 ! D12   D(2,3,4,9)             -0.1692                  4.9                    !
 ! D13   D(8,3,4,5)             -0.077                   2.2                    !
 ! D14   D(8,3,4,9)              0.0618                  1.8                    !
 ! D15   D(3,4,5,1)              0.4962                 14.3                    !
 ! D16   D(9,4,5,1)              0.3847                 11.1                    !
 --------------------------------------------------------------------------------
                           ----------------------------
                           ! Normal Mode     3        !
 --------------------------                            --------------------------
 ! Name  Definition              Value          Relative Weight (%)             !
 --------------------------------------------------------------------------------
 ! R1    R(1,2)                  0.0                     0.0                    !
 ! R2    R(1,5)                  0.0                     0.0                    !
 ! R3    R(1,6)                  0.0                     0.0                    !
 ! R4    R(2,3)                  0.0                     0.0                    !
 ! R5    R(2,7)                  0.0                     0.0                    !
 ! R6    R(3,4)                  0.0                     0.0                    !
 ! R7    R(3,8)                  0.0                     0.0                    !
 ! R8    R(4,5)                  0.0                     0.0                    !
 ! R9    R(4,9)                  0.0                     0.0                    !
 ! A1    A(2,1,5)                0.0                     0.0                    !
 ! A2    A(2,1,6)                0.0                     0.0                    !
 ! A3    A(5,1,6)                0.0                     0.0                    !
 ! A4    A(1,2,3)                0.0                     0.0                    !
 ! A5    A(1,2,7)                0.0                     0.0                    !
 ! A6    A(3,2,7)                0.0                     0.0                    !
 ! A7    A(2,3,4)                0.0                     0.0                    !
 ! A8    A(2,3,8)                0.0                     0.0                    !
 ! A9    A(4,3,8)                0.0                     0.0                    !
 ! A10   A(3,4,5)                0.0                     0.0                    !
 ! A11   A(3,4,9)                0.0                     0.0                    !
 ! A12   A(5,4,9)                0.0                     0.0                    !
 ! A13   A(1,5,4)                0.0                     0.0                    !
 ! D1    D(5,1,2,3)              0.0567                  1.3                    !
 ! D2    D(5,1,2,7)              0.2176                  5.0                    !
 ! D3    D(6,1,2,3)             -0.5531                 12.7                    !
 ! D4    D(6,1,2,7)             -0.3921                  9.0                    !
 ! D5    D(2,1,5,4)             -0.023                   0.5                    !
 ! D6    D(6,1,5,4)              0.4665                 10.7                    !
 ! D7    D(1,2,3,4)             -0.0683                  1.6                    !
 ! D8    D(1,2,3,8)             -0.2309                  5.3                    !
 ! D9    D(7,2,3,4)             -0.2309                  5.3                    !
 ! D10   D(7,2,3,8)             -0.3935                  9.1                    !
 ! D11   D(2,3,4,5)              0.0567                  1.3                    !
 ! D12   D(2,3,4,9)             -0.5531                 12.7                    !
 ! D13   D(8,3,4,5)              0.2176                  5.0                    !
 ! D14   D(8,3,4,9)             -0.3921                  9.0                    !
 ! D15   D(3,4,5,1)             -0.023                   0.5                    !
 ! D16   D(9,4,5,1)              0.4665                 10.7                    !
 --------------------------------------------------------------------------------
                           ----------------------------
                           ! Normal Mode     4        !
 --------------------------                            --------------------------
 ! Name  Definition              Value          Relative Weight (%)             !
 --------------------------------------------------------------------------------
 ! R1    R(1,2)                  0.0                     0.0                    !
 ! R2    R(1,5)                  0.0                     0.0                    !
 ! R3    R(1,6)                  0.0                     0.0                    !
 ! R4    R(2,3)                  0.0                     0.0                    !
 ! R5    R(2,7)                  0.0                     0.0                    !
 ! R6    R(3,4)                  0.0                     0.0                    !
 ! R7    R(3,8)                  0.0                     0.0                    !
 ! R8    R(4,5)                  0.0                     0.0                    !
 ! R9    R(4,9)                  0.0                     0.0                    !
 ! A1    A(2,1,5)                0.0                     0.0                    !
 ! A2    A(2,1,6)                0.0                     0.0                    !
 ! A3    A(5,1,6)                0.0                     0.0                    !
 ! A4    A(1,2,3)                0.0                     0.0                    !
 ! A5    A(1,2,7)                0.0                     0.0                    !
 ! A6    A(3,2,7)                0.0                     0.0                    !
 ! A7    A(2,3,4)                0.0                     0.0                    !
 ! A8    A(2,3,8)                0.0                     0.0                    !
 ! A9    A(4,3,8)                0.0                     0.0                    !
 ! A10   A(3,4,5)                0.0                     0.0                    !
 ! A11   A(3,4,9)                0.0                     0.0                    !
 ! A12   A(5,4,9)                0.0                     0.0                    !
 ! A13   A(1,5,4)                0.0                     0.0                    !
 ! D1    D(5,1,2,3)              0.0727                  2.2                    !
 ! D2    D(5,1,2,7)              0.369                  11.1                    !
 ! D3    D(6,1,2,3)             -0.4117                 12.4                    !
 ! D4    D(6,1,2,7)             -0.1154                  3.5                    !
 ! D5    D(2,1,5,4)             -0.1171                  3.5                    !
 ! D6    D(6,1,5,4)              0.2718                  8.2                    !
 ! D7    D(1,2,3,4)              0.0                     0.0                    !
 ! D8    D(1,2,3,8)              0.2993                  9.0                    !
 ! D9    D(7,2,3,4)             -0.2993                  9.0                    !
 ! D10   D(7,2,3,8)              0.0                     0.0                    !
 ! D11   D(2,3,4,5)             -0.0727                  2.2                    !
 ! D12   D(2,3,4,9)              0.4117                 12.4                    !
 ! D13   D(8,3,4,5)             -0.369                  11.1                    !
 ! D14   D(8,3,4,9)              0.1154                  3.5                    !
 ! D15   D(3,4,5,1)              0.1171                  3.5                    !
 ! D16   D(9,4,5,1)             -0.2718                  8.2                    !
 --------------------------------------------------------------------------------
                           ----------------------------
                           ! Normal Mode     5        !
 --------------------------                            --------------------------
 ! Name  Definition              Value          Relative Weight (%)             !
 --------------------------------------------------------------------------------
 ! R1    R(1,2)                  0.0                     0.0                    !
 ! R2    R(1,5)                  0.0                     0.0                    !
 ! R3    R(1,6)                  0.0                     0.0                    !
 ! R4    R(2,3)                  0.0                     0.0                    !
 ! R5    R(2,7)                  0.0                     0.0                    !
 ! R6    R(3,4)                  0.0                     0.0                    !
 ! R7    R(3,8)                  0.0                     0.0                    !
 ! R8    R(4,5)                  0.0                     0.0                    !
 ! R9    R(4,9)                  0.0                     0.0                    !
 ! A1    A(2,1,5)                0.0                     0.0                    !
 ! A2    A(2,1,6)                0.0                     0.0                    !
 ! A3    A(5,1,6)                0.0                     0.0                    !
 ! A4    A(1,2,3)                0.0                     0.0                    !
 ! A5    A(1,2,7)                0.0                     0.0                    !
 ! A6    A(3,2,7)                0.0                     0.0                    !
 ! A7    A(2,3,4)                0.0                     0.0                    !
 ! A8    A(2,3,8)                0.0                     0.0                    !
 ! A9    A(4,3,8)                0.0                     0.0                    !
 ! A10   A(3,4,5)                0.0                     0.0                    !
 ! A11   A(3,4,9)                0.0                     0.0                    !
 ! A12   A(5,4,9)                0.0                     0.0                    !
 ! A13   A(1,5,4)                0.0                     0.0                    !
 ! D1    D(5,1,2,3)             -0.0598                  1.2                    !
 ! D2    D(5,1,2,7)              0.3726                  7.6                    !
 ! D3    D(6,1,2,3)              0.3938                  8.0                    !
 ! D4    D(6,1,2,7)              0.8262                 16.8                    !
 ! D5    D(2,1,5,4)              0.0963                  2.0                    !
 ! D6    D(6,1,5,4)             -0.2678                  5.5                    !
 ! D7    D(1,2,3,4)              0.0                     0.0                    !
 ! D8    D(1,2,3,8)              0.4367                  8.9                    !
 ! D9    D(7,2,3,4)             -0.4367                  8.9                    !
 ! D10   D(7,2,3,8)              0.0                     0.0                    !
 ! D11   D(2,3,4,5)              0.0598                  1.2                    !
 ! D12   D(2,3,4,9)             -0.3938                  8.0                    !
 ! D13   D(8,3,4,5)             -0.3726                  7.6                    !
 ! D14   D(8,3,4,9)             -0.8262                 16.8                    !
 ! D15   D(3,4,5,1)             -0.0963                  2.0                    !
 ! D16   D(9,4,5,1)              0.2678                  5.5                    !
 --------------------------------------------------------------------------------
                           ----------------------------
                           ! Normal Mode     6        !
 --------------------------                            --------------------------
 ! Name  Definition              Value          Relative Weight (%)             !
 --------------------------------------------------------------------------------
 ! R1    R(1,2)                  0.0                     0.0                    !
 ! R2    R(1,5)                  0.0                     0.0                    !
 ! R3    R(1,6)                  0.0                     0.0                    !
 ! R4    R(2,3)                  0.0                     0.0                    !
 ! R5    R(2,7)                  0.0                     0.0                    !
 ! R6    R(3,4)                  0.0                     0.0                    !
 ! R7    R(3,8)                  0.0                     0.0                    !
 ! R8    R(4,5)                  0.0                     0.0                    !
 ! R9    R(4,9)                  0.0                     0.0                    !
 ! A1    A(2,1,5)                0.0                     0.0                    !
 ! A2    A(2,1,6)                0.0                     0.0                    !
 ! A3    A(5,1,6)                0.0                     0.0                    !
 ! A4    A(1,2,3)                0.0                     0.0                    !
 ! A5    A(1,2,7)                0.0                     0.0                    !
 ! A6    A(3,2,7)                0.0                     0.0                    !
 ! A7    A(2,3,4)                0.0                     0.0                    !
 ! A8    A(2,3,8)                0.0                     0.0                    !
 ! A9    A(4,3,8)                0.0                     0.0                    !
 ! A10   A(3,4,5)                0.0                     0.0                    !
 ! A11   A(3,4,9)                0.0                     0.0                    !
 ! A12   A(5,4,9)                0.0                     0.0                    !
 ! A13   A(1,5,4)                0.0                     0.0                    !
 ! D1    D(5,1,2,3)             -0.1365                  2.4                    !
 ! D2    D(5,1,2,7)              0.4691                  8.4                    !
 ! D3    D(6,1,2,3)              0.1471                  2.6                    !
 ! D4    D(6,1,2,7)              0.7527                 13.5                    !
 ! D5    D(2,1,5,4)              0.0553                  1.0                    !
 ! D6    D(6,1,5,4)             -0.1723                  3.1                    !
 ! D7    D(1,2,3,4)              0.1644                  2.9                    !
 ! D8    D(1,2,3,8)             -0.4473                  8.0                    !
 ! D9    D(7,2,3,4)             -0.4473                  8.0                    !
 ! D10   D(7,2,3,8)             -1.0591                 19.0                    !
 ! D11   D(2,3,4,5)             -0.1365                  2.4                    !
 ! D12   D(2,3,4,9)              0.1471                  2.6                    !
 ! D13   D(8,3,4,5)              0.4691                  8.4                    !
 ! D14   D(8,3,4,9)              0.7527                 13.5                    !
 ! D15   D(3,4,5,1)              0.0553                  1.0                    !
 ! D16   D(9,4,5,1)             -0.1723                  3.1                    !
[...]
     11   0.000000D+00  0.000000D+00  0.000000D+00  0.000000D+00  0.000000D+00
     12   0.000000D+00  0.000000D+00  0.000000D+00  0.000000D+00  0.000000D+00
                26            27            28            29            30 
      1  -0.678575D+00 -0.415325D+00  0.544741D+00  0.404811D+00  0.404811D+00
      2   0.000000D+00  0.000000D+00  0.000000D+00  0.000000D+00  0.000000D+00
      3   0.000000D+00  0.000000D+00  0.000000D+00  0.000000D+00  0.000000D+00
      4   0.133887D+01  0.677486D+00 -0.615136D+00 -0.617443D+00 -0.229912D+00
      5   0.000000D+00  0.000000D+00  0.000000D+00  0.000000D+00  0.000000D+00
      6   0.000000D+00  0.000000D+00  0.000000D+00  0.000000D+00  0.000000D+00
      7  -0.127021D+01 -0.667350D+00 -0.334794D+00  0.617443D+00 -0.791011D+00
      8   0.000000D+00  0.000000D+00  0.000000D+00  0.000000D+00  0.000000D+00
      9   0.000000D+00  0.000000D+00  0.000000D+00  0.000000D+00  0.000000D+00
     10   0.609922D+00  0.405189D+00  0.405189D+00 -0.404811D+00  0.616112D+00
     11   0.000000D+00  0.000000D+00  0.000000D+00  0.000000D+00  0.000000D+00
     12   0.000000D+00  0.000000D+00  0.000000D+00  0.000000D+00  0.000000D+00
                31            32            33            34            35 
      1  -0.616112D+00 -0.616112D+00  0.383637D+00  0.383637D+00 -0.609922D+00
      2   0.000000D+00  0.000000D+00  0.000000D+00  0.000000D+00  0.000000D+00
      3   0.000000D+00  0.000000D+00  0.000000D+00  0.000000D+00  0.000000D+00
      4   0.791011D+00  0.117854D+01 -0.641452D+00 -0.124088D+00  0.752851D+00
      5   0.000000D+00  0.000000D+00  0.000000D+00  0.000000D+00  0.000000D+00
      6   0.000000D+00  0.000000D+00  0.000000D+00  0.000000D+00  0.000000D+00
      7   0.229912D+00 -0.117854D+01  0.672074D+00 -0.938124D+00  0.271330D+00
      8   0.000000D+00  0.000000D+00  0.000000D+00  0.000000D+00  0.000000D+00
      9   0.000000D+00  0.000000D+00  0.000000D+00  0.000000D+00  0.000000D+00
     10  -0.404811D+00  0.616112D+00 -0.414260D+00  0.678575D+00 -0.414260D+00
     11   0.000000D+00  0.000000D+00  0.000000D+00  0.000000D+00  0.000000D+00
     12   0.000000D+00  0.000000D+00  0.000000D+00  0.000000D+00  0.000000D+00
                36            37            38 
      1  -0.609922D+00  0.415325D+00 -0.544741D+00
      2   0.000000D+00  0.000000D+00  0.000000D+00
      3   0.000000D+00  0.000000D+00  0.000000D+00
      4   0.127021D+01 -0.677486D+00  0.615136D+00
      5   0.000000D+00  0.000000D+00  0.000000D+00
      6   0.000000D+00  0.000000D+00  0.000000D+00
      7  -0.133887D+01  0.667350D+00  0.334794D+00
      8   0.000000D+00  0.000000D+00  0.000000D+00
      9   0.000000D+00  0.000000D+00  0.000000D+00
     10   0.678575D+00 -0.405189D+00 -0.405189D+00
     11   0.000000D+00  0.000000D+00  0.000000D+00
     12   0.000000D+00  0.000000D+00  0.000000D+00
 Iteration  1 RMS(Cart)=  0.00038776 RMS(Int)=  0.00000014
 Iteration  2 RMS(Cart)=  0.00000014 RMS(Int)=  0.00000000
 Input Coordinates in SymCor: 
                 1             2             3             4             5 
      1   0.000000D+00  0.000000D+00  0.000000D+00  0.000000D+00  0.000000D+00
      2   0.206924D+01  0.135621D+01 -0.135621D+01 -0.206924D+01  0.000000D+00
      3   0.656564D+00 -0.181362D+01 -0.181362D+01  0.656564D+00  0.219404D+01
                 6             7             8             9 
      1   0.000000D+00  0.000000D+00  0.000000D+00  0.000000D+00
      2   0.387576D+01  0.259575D+01 -0.259575D+01 -0.387576D+01
      3   0.160088D+01 -0.343578D+01 -0.343578D+01  0.160088D+01
 Symmetrized Coordinates in SymCor: 
                 1             2             3             4             5 
      1   0.000000D+00  0.000000D+00  0.000000D+00  0.000000D+00  0.000000D+00
      2   0.206924D+01  0.135621D+01 -0.135621D+01 -0.206924D+01  0.000000D+00
      3   0.656563D+00 -0.181362D+01 -0.181362D+01  0.656563D+00  0.219404D+01
                 6             7             8             9 
      1   0.000000D+00  0.000000D+00  0.000000D+00  0.000000D+00
      2   0.387576D+01  0.259575D+01 -0.259575D+01 -0.387576D+01
      3   0.160088D+01 -0.343578D+01 -0.343578D+01  0.160088D+01
 Final Coordinates in SymCor: 
                 1             2             3             4             5 
      1   0.000000D+00  0.000000D+00  0.000000D+00  0.000000D+00  0.000000D+00
      2   0.206924D+01  0.135621D+01 -0.135621D+01 -0.206924D+01  0.000000D+00
      3   0.656564D+00 -0.181362D+01 -0.181362D+01  0.656564D+00  0.219404D+01
                 6             7             8             9 
      1   0.000000D+00  0.000000D+00  0.000000D+00  0.000000D+00
      2   0.387576D+01  0.259575D+01 -0.259575D+01 -0.387576D+01
      3   0.160088D+01 -0.343578D+01 -0.343578D+01  0.160088D+01
 ClnCor:  largest displacement from symmetrization is 2.27D-12 for atom     9.
 Variable       Old X    -DE/DX   Delta X   Delta X   Delta X     New X
                                 (Linear)    (Quad)   (Total)
    R1        2.57099  -0.00001   0.00000   0.00004   0.00004   2.57103
    R2        2.57760   0.00012   0.00000   0.00031   0.00031   2.57791
    R3        2.03847  -0.00000   0.00000  -0.00003  -0.00003   2.03844
    R4        2.71288  -0.00007   0.00000  -0.00046  -0.00046   2.71243
    R5        2.04149   0.00001   0.00000   0.00005   0.00005   2.04153
    R6        2.57099  -0.00001   0.00000   0.00004   0.00004   2.57103
    R7        2.04149   0.00001   0.00000   0.00005   0.00005   2.04153
    R8        2.57760   0.00012   0.00000   0.00031   0.00031   2.57791
    R9        2.03847  -0.00000   0.00000  -0.00003  -0.00003   2.03844
    A1        1.92905  -0.00009   0.00000  -0.00026  -0.00026   1.92879
    A2        2.33356   0.00001   0.00000  -0.00008  -0.00008   2.33348
    A3        2.02057   0.00008   0.00000   0.00034   0.00034   2.02091
    A4        1.85160   0.00007   0.00000   0.00021   0.00022   1.85181
    A5        2.20908  -0.00012   0.00000  -0.00099  -0.00099   2.20810
    A6        2.22250   0.00005   0.00000   0.00077   0.00077   2.22328
    A7        1.85160   0.00007   0.00000   0.00021   0.00022   1.85181
    A8        2.22250   0.00005   0.00000   0.00077   0.00077   2.22328
    A9        2.20908  -0.00012   0.00000  -0.00099  -0.00099   2.20810
   A10        1.92905  -0.00009   0.00000  -0.00026  -0.00026   1.92879
   A11        2.33356   0.00001   0.00000  -0.00008  -0.00008   2.33348
   A12        2.02057   0.00008   0.00000   0.00034   0.00034   2.02091
   A13        1.86347   0.00004   0.00000   0.00009   0.00009   1.86356
    D1        0.00000  -0.00000   0.00000  -0.00000   0.00000   0.00000
    D2        3.14159   0.00000   0.00000   0.00000   0.00000   3.14159
    D3        3.14159  -0.00000   0.00000  -0.00000   0.00000   3.14159
    D4       -0.00000   0.00000   0.00000   0.00000   0.00000   0.00000
    D5       -0.00000   0.00000   0.00000   0.00000   0.00000   0.00000
    D6        3.14159   0.00000   0.00000   0.00000   0.00000   3.14159
    D7       -0.00000  -0.00000   0.00000  -0.00000   0.00000   0.00000
    D8        3.14159   0.00000   0.00000   0.00000   0.00000   3.14159
    D9        3.14159  -0.00000   0.00000  -0.00000   0.00000   3.14159
   D10        0.00000  -0.00000   0.00000  -0.00000  -0.00000   0.00000
   D11       -0.00000   0.00000   0.00000   0.00000   0.00000   0.00000
   D12        3.14159   0.00000   0.00000   0.00000   0.00000   3.14159
   D13        3.14159  -0.00000   0.00000  -0.00000   0.00000   3.14159
   D14        0.00000  -0.00000   0.00000  -0.00000   0.00000   0.00000
   D15        0.00000  -0.00000   0.00000  -0.00000   0.00000   0.00000
   D16        3.14159  -0.00000   0.00000  -0.00000   0.00000   3.14159
         Item               Value     Threshold  Converged?
 Maximum Force            0.000124     0.000450     YES
 RMS     Force            0.000054     0.000300     YES
 Maximum Displacement     0.001052     0.001800     YES
 RMS     Displacement     0.000388     0.001200     YES
 Predicted change in Energy=-2.768458D-07
 Optimization completed.
    -- Stationary point found.
                           ----------------------------
                           !   Optimized Parameters   !
                           ! (Angstroms and Degrees)  !
 --------------------------                            --------------------------
 ! Name  Definition              Value          Derivative Info.                !
 --------------------------------------------------------------------------------
 ! R1    R(1,2)                  1.3605         -DE/DX =    0.0                 !
 ! R2    R(1,5)                  1.364          -DE/DX =    0.0001              !
 ! R3    R(1,6)                  1.0787         -DE/DX =    0.0                 !
 ! R4    R(2,3)                  1.4356         -DE/DX =   -0.0001              !
 ! R5    R(2,7)                  1.0803         -DE/DX =    0.0                 !
 ! R6    R(3,4)                  1.3605         -DE/DX =    0.0                 !
 ! R7    R(3,8)                  1.0803         -DE/DX =    0.0                 !
 ! R8    R(4,5)                  1.364          -DE/DX =    0.0001              !
 ! R9    R(4,9)                  1.0787         -DE/DX =    0.0                 !
 ! A1    A(2,1,5)              110.5266         -DE/DX =   -0.0001              !
 ! A2    A(2,1,6)              133.703          -DE/DX =    0.0                 !
 ! A3    A(5,1,6)              115.7704         -DE/DX =    0.0001              !
 ! A4    A(1,2,3)              106.0888         -DE/DX =    0.0001              !
 ! A5    A(1,2,7)              126.5711         -DE/DX =   -0.0001              !
 ! A6    A(3,2,7)              127.3401         -DE/DX =    0.0001              !
 ! A7    A(2,3,4)              106.0888         -DE/DX =    0.0001              !
 ! A8    A(2,3,8)              127.3401         -DE/DX =    0.0001              !
 ! A9    A(4,3,8)              126.5711         -DE/DX =   -0.0001              !
 ! A10   A(3,4,5)              110.5266         -DE/DX =   -0.0001              !
 ! A11   A(3,4,9)              133.703          -DE/DX =    0.0                 !
 ! A12   A(5,4,9)              115.7704         -DE/DX =    0.0001              !
 ! A13   A(1,5,4)              106.7692         -DE/DX =    0.0                 !
 ! D1    D(5,1,2,3)              0.0            -DE/DX =    0.0                 !
 ! D2    D(5,1,2,7)            180.0            -DE/DX =    0.0                 !
 ! D3    D(6,1,2,3)            180.0            -DE/DX =    0.0                 !
 ! D4    D(6,1,2,7)              0.0            -DE/DX =    0.0                 !
 ! D5    D(2,1,5,4)              0.0            -DE/DX =    0.0                 !
 ! D6    D(6,1,5,4)            180.0            -DE/DX =    0.0                 !
 ! D7    D(1,2,3,4)              0.0            -DE/DX =    0.0                 !
 ! D8    D(1,2,3,8)            180.0            -DE/DX =    0.0                 !
 ! D9    D(7,2,3,4)            180.0            -DE/DX =    0.0                 !
 ! D10   D(7,2,3,8)              0.0            -DE/DX =    0.0                 !
 ! D11   D(2,3,4,5)              0.0            -DE/DX =    0.0                 !
 ! D12   D(2,3,4,9)            180.0            -DE/DX =    0.0                 !
 ! D13   D(8,3,4,5)            180.0            -DE/DX =    0.0                 !
 ! D14   D(8,3,4,9)              0.0            -DE/DX =    0.0                 !
 ! D15   D(3,4,5,1)              0.0            -DE/DX =    0.0                 !
 ! D16   D(9,4,5,1)            180.0            -DE/DX =    0.0                 !
 --------------------------------------------------------------------------------
 GradGradGradGradGradGradGradGradGradGradGradGradGradGradGradGradGradGrad

 Leave Link  103 at Sat Aug 10 16:34:00 2019, MaxMem=  4294967296 cpu:               6.5 elap:               0.5

 ----------------------------------------------------------------------

 Electric dipole moment (input orientation):
 (Debye = 10**-18 statcoulomb cm , SI units = C m)
                  (au)            (Debye)         (10**-30 SI)
   Tot        0.247922D+00      0.630155D+00      0.210197D+01
   x          0.000000D+00      0.000000D+00      0.000000D+00
   y          0.000000D+00      0.000000D+00      0.000000D+00
   z         -0.247922D+00     -0.630155D+00     -0.210197D+01

 Dipole polarizability, Alpha (input orientation).
 (esu units = cm**3 , SI units = C**2 m**2 J**-1)
 Alpha(0;0):
               (au)            (10**-24 esu)      (10**-40 SI)
   iso        0.373572D+02      0.553577D+01      0.615937D+01
   aniso      0.299840D+02      0.444317D+01      0.494369D+01
   xx         0.174715D+02      0.258901D+01      0.288066D+01
   yx         0.000000D+00      0.000000D+00      0.000000D+00
   yy         0.490605D+02      0.727001D+01      0.808898D+01
   zx         0.000000D+00      0.000000D+00      0.000000D+00
   zy         0.000000D+00      0.000000D+00      0.000000D+00
   zz         0.455397D+02      0.674828D+01      0.750848D+01

 ----------------------------------------------------------------------

 Dipole orientation:
     6          0.00000000         -2.06892885         -0.65670628
     6          0.00000000         -1.35644163          1.81358339
     6          0.00000000          1.35644163          1.81358339
     6         -0.00000000          2.06892885         -0.65670628
     8         -0.00000000          0.00000000         -2.19409108
     1          0.00000000         -3.87519711         -1.60157124
     1          0.00000000         -2.59469601          3.43666538
     1          0.00000000          2.59469601          3.43666538
     1         -0.00000000          3.87519711         -1.60157124

 Electric dipole moment (dipole orientation):
 (Debye = 10**-18 statcoulomb cm , SI units = C m)
                  (au)            (Debye)         (10**-30 SI)
   Tot        0.247922D+00      0.630155D+00      0.210197D+01
   x          0.000000D+00      0.000000D+00      0.000000D+00
   y          0.000000D+00      0.000000D+00      0.000000D+00
   z          0.247922D+00      0.630155D+00      0.210197D+01

 Dipole polarizability, Alpha (dipole orientation).
 (esu units = cm**3 , SI units = C**2 m**2 J**-1)
 Alpha(0;0):
               (au)            (10**-24 esu)      (10**-40 SI)
   iso        0.373572D+02      0.553577D+01      0.615937D+01
   aniso      0.299840D+02      0.444317D+01      0.494369D+01
   xx         0.174715D+02      0.258901D+01      0.288066D+01
   yx         0.000000D+00      0.000000D+00      0.000000D+00
   yy         0.490605D+02      0.727001D+01      0.808898D+01
   zx         0.000000D+00      0.000000D+00      0.000000D+00
   zy         0.000000D+00      0.000000D+00      0.000000D+00
   zz         0.455397D+02      0.674828D+01      0.750848D+01

 ----------------------------------------------------------------------

 Test job not archived.
 1\1\NSC-N479\Freq\RB3LYP\6-31G(d,p)\C4H4O1\X_KJEJO\10-Aug-2019\0\\# fr
 eq(hpmodes,intmodes) iop(1/33=3) b3lyp/6-31g(d,p) geom=connectivity io
 p(7/75=-1)\\name\\0,1\C,0.,1.09483,0.347514\C,0.,0.717798,-0.959707\C,
 0.,-0.717798,-0.959707\C,0.,-1.09483,0.347514\O,0.,0.,1.161063\H,0.,2.
 050666,0.847515\H,0.,1.373054,-1.818605\H,0.,-1.373054,-1.818605\H,0.,
 -2.050666,0.847515\\Version=ES64L-G16RevB.01\State=1-A1\HF=-230.027374
 6\RMSD=1.773e-09\RMSF=9.843e-05\ZeroPoint=0.0701567\Thermal=0.0738678\
 Dipole=0.,0.,-0.247922\DipoleDeriv=-0.06424,0.,0.,0.,0.101389,-0.09709
 47,0.,-0.0896958,0.4019672,-0.1675758,0.,0.,0.,0.0358838,-0.0876636,0.
 ,-0.0781246,-0.0679857,-0.1675758,0.,0.,0.,0.0358838,0.0876636,0.,0.07
 81245,-0.0679857,-0.06424,0.,0.,0.,0.101389,0.0970948,0.,0.0896958,0.4
 019672,-0.1429135,0.,0.,0.,-0.3298785,0.,0.,0.,-0.8167408,0.1614352,0.
 ,0.,0.,0.0063347,-0.0269925,0.,-0.0469522,0.0481095,0.1418373,0.,0.,0.
 ,0.0213317,0.076363,0.,0.0670627,0.0262794,0.1418373,0.,0.,0.,0.021331
 7,-0.076363,0.,-0.0670627,0.0262794,0.1614352,0.,0.,0.,0.0063347,0.026
 9925,0.,0.0469522,0.0481095\Polar=17.4715007,0.,49.0604672,0.,0.,45.53
 9666\Quadrupole=-2.623924,2.7752346,-0.1513105,0.,0.,0.\PG=C02V [C2(O1
 ),SGV(C4H4)]\NImag=0\\0.11612075,0.,0.74554991,0.,0.18082544,0.7296869
 9,-0.05981647,0.,0.,0.11453041,0.,-0.12344831,-0.08336350,0.,0.6191496
 1,0.,-0.09723286,-0.40948082,0.,-0.10920547,0.84116299,0.01166488,0.,0
 .,-0.05601656,0.,0.,0.11453041,0.,-0.03156945,-0.07719248,0.,-0.270428
 98,0.01723637,0.,0.61914961,0.,-0.01387380,-0.00010805,0.,-0.01723637,
 -0.10999533,0.,0.10920547,0.84116299,0.01491200,0.,0.,0.01166488,0.,0.
 ,-0.05981647,0.,0.,0.11612075,0.,-0.11687715,0.01318333,0.,-0.03156945
 ,0.01387380,0.,-0.12344831,0.09723286,0.,0.74554991,0.,-0.01318333,-0.
 01094013,0.,0.07719248,-0.00010805,0.,0.08336350,-0.40948082,0.,-0.180
 82544,0.72968699,-0.06347514,0.,0.,0.01232026,0.,0.,0.01232026,0.,0.,-
 0.06347514,0.,0.,0.09603767,0.,-0.18939949,0.10634447,0.,-0.02369169,0
 .05154696,0.,-0.02369169,-0.05154696,0.,-0.18939948,-0.10634447,0.,0.4
 7574892,0.,0.06133589,-0.16243406,0.,0.00568530,-0.07764531,0.,-0.0056
 8530,-0.07764531,0.,-0.06133590,-0.16243406,0.,0.,0.46525905,-0.022540
 87,0.,0.,0.00141882,0.,0.,0.00507902,0.,0.,0.00253156,0.,0.,-0.0060607
 9,0.,0.,0.01903205,0.,-0.28800452,-0.12758292,0.,0.00275613,0.00138504
 ,0.,0.00079851,-0.00011344,0.,0.00021435,0.00545807,0.,-0.02640003,-0.
 01038032,0.,0.31130579,0.,-0.13895986,-0.13200672,0.,-0.02193004,0.002
 56896,0.,-0.00097632,-0.00536544,0.,0.00296169,-0.00433223,0.,0.025945
 32,0.01250358,0.,0.13283844,0.12496707,-0.00268274,0.,0.,-0.02788926,0
 .,0.,-0.00129110,0.,0.,0.00328603,0.,0.,0.00919685,0.,0.,-0.00251703,0
 .,0.,0.02242652,0.,0.01020387,-0.00783177,0.,-0.16741922,0.14581632,0.
 ,-0.00614662,0.02353359,0.,-0.00666922,-0.00107549,0.,0.00161674,-0.00
 442013,0.,-0.00021022,0.00063473,0.,0.16746896,0.,0.02053033,-0.009119
 36,0.,0.14362062,-0.24902079,0.,-0.00426066,0.00788381,0.,-0.00351987,
 -0.00126562,0.,0.00083972,-0.00505373,0.,-0.00060254,0.00012662,0.,-0.
 15739057,0.25597352,0.00328603,0.,0.,-0.00129110,0.,0.,-0.02788926,0.,
 0.,-0.00268274,0.,0.,0.00919685,0.,0.,0.00114454,0.,0.,-0.00167380,0.,
 0.,0.02242652,0.,-0.00666922,0.00107549,0.,-0.00614662,-0.02353359,0.,
 -0.16741922,-0.14581632,0.,0.01020387,0.00783177,0.,0.00161674,0.00442
 013,0.,0.00028250,-0.00141195,0.,0.00087322,0.00067863,0.,0.16746896,0
 .,0.00351987,-0.00126562,0.,0.00426066,0.00788381,0.,-0.14362062,-0.24
 902079,0.,-0.02053033,-0.00911936,0.,-0.00083972,-0.00505373,0.,-0.000
 10434,0.00058429,0.,-0.00067863,-0.00010874,0.,0.15739057,0.25597352,0
 .00253156,0.,0.,0.00507902,0.,0.,0.00141882,0.,0.,-0.02254087,0.,0.,-0
 .00606079,0.,0.,0.00191271,0.,0.,0.00114454,0.,0.,-0.00251703,0.,0.,0.
 01903205,0.,0.00021435,-0.00545807,0.,0.00079851,0.00011344,0.,0.00275
 613,-0.00138504,0.,-0.28800452,0.12758292,0.,-0.02640003,0.01038032,0.
 ,-0.00074250,0.00089799,0.,0.00028250,0.00010434,0.,-0.00021022,0.0006
 0254,0.,0.31130579,0.,-0.00296169,-0.00433223,0.,0.00097632,-0.0053654
 4,0.,0.02193004,0.00256896,0.,0.13895986,-0.13200672,0.,-0.02594532,0.
 01250358,0.,-0.00089799,0.00095388,0.,0.00141195,0.00058429,0.,-0.0006
 3473,0.00012662,0.,-0.13283844,0.12496707\\0.,-0.00024339,0.00002060,0
 .,0.00025094,-0.00000014,0.,-0.00025094,-0.00000014,0.,0.00024339,0.00
 002060,0.,0.,-0.00001641,0.,-0.00001035,0.00003055,0.,-0.00007179,-0.0
 0004281,0.,0.00007179,-0.00004281,0.,0.00001035,0.00003055\\\@


 IF AT FIRST YOU DON'T SUCCEED, TRY, TRY AGAIN.
 THEN GIVE UP;
 THERE'S NO USE BEING A DAMN FOOL ABOUT IT.

                                 -- W. C. FIELDS
 Job cpu time:       0 days  0 hours  2 minutes 40.3 seconds.
 Elapsed time:       0 days  0 hours  0 minutes 12.0 seconds.
 File lengths (MBytes):  RWF=     11 Int=      0 D2E=      0 Chk=      8 Scr=      1
 Normal termination of Gaussian 16 at Sat Aug 10 16:34:01 2019.
