 Entering Gaussian System, Link 0=/software/sse/easybuild/prefix/software/Gaussian/16.B.01-avx2-nsc1-bdist/g16/g16.orig
 Input=freq-hp.wrap
 Output=freq-hp.log
 Initial command:
 /software/sse/easybuild/prefix/software/Gaussian/16.B.01-avx2-nsc1-bdist/g16/l1.exe "/scratch/local/Gau-103085.inp" -scrdir="/scratch/local/"
 Default is to use a total of  16 processors:
                               16 via shared-memory
                                1 via Linda
 Entering Link 1 = /software/sse/easybuild/prefix/software/Gaussian/16.B.01-avx2-nsc1-bdist/g16/l1.exe PID=    103091.
  
 Copyright (c) 1988-2017, Gaussian, Inc.  All Rights Reserved.
  
 This is part of the Gaussian(R) 16 program.  It is based on
 the Gaussian(R) 09 system (copyright 2009, Gaussian, Inc.),
 the Gaussian(R) 03 system (copyright 2003, Gaussian, Inc.),
 the Gaussian(R) 98 system (copyright 1998, Gaussian, Inc.),
 the Gaussian(R) 94 system (copyright 1995, Gaussian, Inc.),
 the Gaussian 92(TM) system (copyright 1992, Gaussian, Inc.),
 the Gaussian 90(TM) system (copyright 1990, Gaussian, Inc.),
 the Gaussian 88(TM) system (copyright 1988, Gaussian, Inc.),
 the Gaussian 86(TM) system (copyright 1986, Carnegie Mellon
 University), and the Gaussian 82(TM) system (copyright 1983,
 Carnegie Mellon University). Gaussian is a federally registered
 trademark of Gaussian, Inc.
  
 This software contains proprietary and confidential information,
 including trade secrets, belonging to Gaussian, Inc.
  
 This software is provided under written license and may be
 used, copied, transmitted, or stored only in accord with that
 written license.
  
 The following legend is applicable only to US Government
 contracts under FAR:
  
                    RESTRICTED RIGHTS LEGEND
  
 Use, reproduction and disclosure by the US Government is
 subject to restrictions as set forth in subparagraphs (a)
 and (c) of the Commercial Computer Software - Restricted
 Rights clause in FAR 52.227-19.
  
 Gaussian, Inc.
 340 Quinnipiac St., Bldg. 40, Wallingford CT 06492
  
  
 ---------------------------------------------------------------
 Warning -- This program may not be used in any manner that
 competes with the business of Gaussian, Inc. or will provide
 assistance to any competitor of Gaussian, Inc.  The licensee
 of this program is prohibited from giving any competitor of
 Gaussian, Inc. access to this program.  By using this program,
 the user acknowledges that Gaussian, Inc. is engaged in the
 business of creating and licensing software in the field of
 computational chemistry and represents and warrants to the
 licensee that it is not a competitor of Gaussian, Inc. and that
 it will not use this program in any manner prohibited above.
 ---------------------------------------------------------------
  

 Cite this work as:
 Gaussian 16, Revision B.01,
 M. J. Frisch, G. W. Trucks, H. B. Schlegel, G. E. Scuseria, 
 M. A. Robb, J. R. Cheeseman, G. Scalmani, V. Barone, 
 G. A. Petersson, H. Nakatsuji, X. Li, M. Caricato, A. V. Marenich, 
 J. Bloino, B. G. Janesko, R. Gomperts, B. Mennucci, H. P. Hratchian, 
 J. V. Ortiz, A. F. Izmaylov, J. L. Sonnenberg, D. Williams-Young, 
 F. Ding, F. Lipparini, F. Egidi, J. Goings, B. Peng, A. Petrone, 
 T. Henderson, D. Ranasinghe, V. G. Zakrzewski, J. Gao, N. Rega, 
 G. Zheng, W. Liang, M. Hada, M. Ehara, K. Toyota, R. Fukuda, 
 J. Hasegawa, M. Ishida, T. Nakajima, Y. Honda, O. Kitao, H. Nakai, 
 T. Vreven, K. Throssell, J. A. Montgomery, Jr., J. E. Peralta, 
 F. Ogliaro, M. J. Bearpark, J. J. Heyd, E. N. Brothers, K. N. Kudin, 
 V. N. Staroverov, T. A. Keith, R. Kobayashi, J. Normand, 
 K. Raghavachari, A. P. Rendell, J. C. Burant, S. S. Iyengar, 
 J. Tomasi, M. Cossi, J. M. Millam, M. Klene, C. Adamo, R. Cammi, 
 J. W. Ochterski, R. L. Martin, K. Morokuma, O. Farkas, 
 J. B. Foresman, and D. J. Fox, Gaussian, Inc., Wallingford CT, 2016.
 
 ******************************************
 Gaussian 16:  ES64L-G16RevB.01 20-Dec-2017
                10-Aug-2019 
 ******************************************
 %chk=freq.chk
 ----------------------------------------------------------------------
 # freq(hpmodes,intmodes) iop(1/33=3) b3lyp/6-31g(d,p) geom=connectivit
 y iop(7/75=-1)
 ----------------------------------------------------------------------
 1/10=4,18=20,30=1,33=3,38=1,57=2/1,3;
 2/9=110,12=2,17=6,18=5,40=1/2;
 3/5=1,6=6,7=101,11=2,25=1,30=1,71=2,74=-5,140=1/1,2,3;
 4//1;
 5/5=2,38=5,98=1/2;
 8/6=4,10=90,11=11/1;
 11/6=1,8=1,9=11,15=111,16=1/1,2,10;
 10/6=1/2;
 6/7=2,8=2,9=2,10=2,28=1/1;
 7/8=31,10=1,25=1,75=-1/1,2,3,16;
 1/10=4,18=20,30=1,33=3/3;
 99//99;
 ONIOM results not found on unit 2.
 ----
 name
 ----
 TstMul:  ICh=     0
 TstMul:  Mul=     1
 TstMul:  ICh=     0
 TstMul:  Mul=     1
 Symbolic Z-matrix:
 Charge =  0 Multiplicity = 1
 C                     0.        1.27722  -0.25958 
 H                     0.88366   1.32267  -0.90672 
 H                    -0.88366   1.32267  -0.90672 
 H                     0.        2.17557   0.3668 
 C                     0.        0.        0.58585 
 H                     0.87666   0.        1.24659 
 H                    -0.87666   0.        1.24659 
 C                     0.       -1.27722  -0.25958 
 H                     0.88366  -1.32267  -0.90672 
 H                     0.       -2.17557   0.3668 
 H                    -0.88366  -1.32267  -0.90672 
 
 RdStrC is calling ZToCFu for IStruc=1 NZ=    11.
                                ZToCFu                                
 ---------------------------------------------------------------------
 Center     Atomic      Atomic             Coordinates (Angstroms)
 Number     Number       Type             X           Y           Z
 ---------------------------------------------------------------------
      1          6           0        0.000000    1.277217   -0.259582
      2          1           0        0.883656    1.322671   -0.906722
      3          1           0       -0.883656    1.322671   -0.906722
      4          1           0        0.000000    2.175574    0.366804
      5          6           0        0.000000    0.000000    0.585846
      6          1           0        0.876658    0.000000    1.246592
      7          1           0       -0.876658    0.000000    1.246592
      8          6           0        0.000000   -1.277217   -0.259582
      9          1           0        0.883656   -1.322671   -0.906722
     10          1           0        0.000000   -2.175574    0.366804
     11          1           0       -0.883656   -1.322671   -0.906722
 ---------------------------------------------------------------------
 Connectivity in DoCon:
 I=     1 IAn=  6 IBond, RBType=     2  1.00     3  1.00     4  1.00     5  1.00
 I=     2 IAn=  1 IBond, RBType=     1  1.00
 I=     3 IAn=  1 IBond, RBType=     1  1.00
 I=     4 IAn=  1 IBond, RBType=     1  1.00
 I=     5 IAn=  6 IBond, RBType=     1  1.00     6  1.00     7  1.00     8  1.00
 I=     6 IAn=  1 IBond, RBType=     5  1.00
 I=     7 IAn=  1 IBond, RBType=     5  1.00
 I=     8 IAn=  6 IBond, RBType=     5  1.00     9  1.00    10  1.00    11  1.00
 I=     9 IAn=  1 IBond, RBType=     8  1.00
 I=    10 IAn=  1 IBond, RBType=     8  1.00
 I=    11 IAn=  1 IBond, RBType=     8  1.00
 After GenITR:
 ITRead=  0  0  0  0  0  0  0  0  0  0  0
 MicOpt= -1 -1 -1 -1 -1 -1 -1 -1 -1 -1 -1
 List IsCon N=     11 M=      2:
 I=      1 Vals=      2      1 |      3      1 |      4      1 |      5      1 |
 I=      2 Vals=      1      1 |
 I=      3 Vals=      1      1 |
 I=      4 Vals=      1      1 |
 I=      5 Vals=      1      1 |      6      1 |      7      1 |      8      1 |
 I=      6 Vals=      5      1 |
 I=      7 Vals=      5      1 |
 I=      8 Vals=      5      1 |      9      1 |     10      1 |     11      1 |
 I=      9 Vals=      8      1 |
 I=     10 Vals=      8      1 |
 I=     11 Vals=      8      1 |
 Coordinate R1 contains atom 1 which is already in QM block.
 Coordinate R1 contains atom 2 which is already in QM block.
 Coordinate R2 contains atom 1 which is already in QM block.
 Coordinate R2 contains atom 3 which is already in QM block.
 Coordinate R3 contains atom 1 which is already in QM block.
 Coordinate R3 contains atom 4 which is already in QM block.
 Coordinate R4 contains atom 1 which is already in QM block.
 Coordinate R4 contains atom 5 which is already in QM block.
 Coordinate R5 contains atom 5 which is already in QM block.
 Coordinate R5 contains atom 6 which is already in QM block.
 Coordinate R6 contains atom 5 which is already in QM block.
 Coordinate R6 contains atom 7 which is already in QM block.
 Coordinate R7 contains atom 5 which is already in QM block.
 Coordinate R7 contains atom 8 which is already in QM block.
 Coordinate R8 contains atom 8 which is already in QM block.
 Coordinate R8 contains atom 9 which is already in QM block.
 Coordinate R9 contains atom 8 which is already in QM block.
 Coordinate R9 contains atom 10 which is already in QM block.
 Coordinate R10 contains atom 8 which is already in QM block.
 Coordinate R10 contains atom 11 which is already in QM block.
 Coordinate A1 contains atom 2 which is already in QM block.
 Coordinate A1 contains atom 1 which is already in QM block.
 Coordinate A1 contains atom 1 which is already in QM block.
 Coordinate A2 contains atom 2 which is already in QM block.
 Coordinate A2 contains atom 1 which is already in QM block.
 Coordinate A2 contains atom 1 which is already in QM block.
 Coordinate A3 contains atom 2 which is already in QM block.
 Coordinate A3 contains atom 1 which is already in QM block.
 Coordinate A3 contains atom 1 which is already in QM block.
 Coordinate A4 contains atom 3 which is already in QM block.
 Coordinate A4 contains atom 1 which is already in QM block.
 Coordinate A4 contains atom 1 which is already in QM block.
 Coordinate A5 contains atom 3 which is already in QM block.
 Coordinate A5 contains atom 1 which is already in QM block.
 Coordinate A5 contains atom 1 which is already in QM block.
 Coordinate A6 contains atom 4 which is already in QM block.
 Coordinate A6 contains atom 1 which is already in QM block.
 Coordinate A6 contains atom 1 which is already in QM block.
 Coordinate A7 contains atom 1 which is already in QM block.
 Coordinate A7 contains atom 5 which is already in QM block.
 Coordinate A7 contains atom 5 which is already in QM block.
 Coordinate A8 contains atom 1 which is already in QM block.
 Coordinate A8 contains atom 5 which is already in QM block.
 Coordinate A8 contains atom 5 which is already in QM block.
 Coordinate A9 contains atom 1 which is already in QM block.
 Coordinate A9 contains atom 5 which is already in QM block.
 Coordinate A9 contains atom 5 which is already in QM block.
 Coordinate A10 contains atom 6 which is already in QM block.
 Coordinate A10 contains atom 5 which is already in QM block.
 Coordinate A10 contains atom 5 which is already in QM block.
 Coordinate A11 contains atom 6 which is already in QM block.
 Coordinate A11 contains atom 5 which is already in QM block.
 Coordinate A11 contains atom 5 which is already in QM block.
 Coordinate A12 contains atom 7 which is already in QM block.
 Coordinate A12 contains atom 5 which is already in QM block.
 Coordinate A12 contains atom 5 which is already in QM block.
 Coordinate A13 contains atom 5 which is already in QM block.
 Coordinate A13 contains atom 8 which is already in QM block.
 Coordinate A13 contains atom 8 which is already in QM block.
 Coordinate A14 contains atom 5 which is already in QM block.
 Coordinate A14 contains atom 8 which is already in QM block.
 Coordinate A14 contains atom 8 which is already in QM block.
 Coordinate A15 contains atom 5 which is already in QM block.
 Coordinate A15 contains atom 8 which is already in QM block.
 Coordinate A15 contains atom 8 which is already in QM block.
 Coordinate A16 contains atom 9 which is already in QM block.
 Coordinate A16 contains atom 8 which is already in QM block.
 Coordinate A16 contains atom 8 which is already in QM block.
 Coordinate A17 contains atom 9 which is already in QM block.
 Coordinate A17 contains atom 8 which is already in QM block.
 Coordinate A17 contains atom 8 which is already in QM block.
 Coordinate A18 contains atom 10 which is already in QM block.
 Coordinate A18 contains atom 8 which is already in QM block.
 Coordinate A18 contains atom 8 which is already in QM block.
 Coordinate D1 contains atom 2 which is already in QM block.
 Coordinate D1 contains atom 1 which is already in QM block.
 Coordinate D1 contains atom 5 which is already in QM block.
 Coordinate D1 contains atom 6 which is already in QM block.
 Coordinate D2 contains atom 2 which is already in QM block.
 Coordinate D2 contains atom 1 which is already in QM block.
 Coordinate D2 contains atom 5 which is already in QM block.
 Coordinate D2 contains atom 7 which is already in QM block.
 Coordinate D3 contains atom 2 which is already in QM block.
 Coordinate D3 contains atom 1 which is already in QM block.
 Coordinate D3 contains atom 5 which is already in QM block.
 Coordinate D3 contains atom 8 which is already in QM block.
 Coordinate D4 contains atom 3 which is already in QM block.
 Coordinate D4 contains atom 1 which is already in QM block.
 Coordinate D4 contains atom 5 which is already in QM block.
 Coordinate D4 contains atom 6 which is already in QM block.
 Coordinate D5 contains atom 3 which is already in QM block.
 Coordinate D5 contains atom 1 which is already in QM block.
 Coordinate D5 contains atom 5 which is already in QM block.
 Coordinate D5 contains atom 7 which is already in QM block.
 Coordinate D6 contains atom 3 which is already in QM block.
 Coordinate D6 contains atom 1 which is already in QM block.
 Coordinate D6 contains atom 5 which is already in QM block.
 Coordinate D6 contains atom 8 which is already in QM block.
 Coordinate D7 contains atom 4 which is already in QM block.
 Coordinate D7 contains atom 1 which is already in QM block.
 Coordinate D7 contains atom 5 which is already in QM block.
 Coordinate D7 contains atom 6 which is already in QM block.
 Coordinate D8 contains atom 4 which is already in QM block.
 Coordinate D8 contains atom 1 which is already in QM block.
 Coordinate D8 contains atom 5 which is already in QM block.
 Coordinate D8 contains atom 7 which is already in QM block.
 Coordinate D9 contains atom 4 which is already in QM block.
 Coordinate D9 contains atom 1 which is already in QM block.
 Coordinate D9 contains atom 5 which is already in QM block.
 Coordinate D9 contains atom 8 which is already in QM block.
 Coordinate D10 contains atom 1 which is already in QM block.
 Coordinate D10 contains atom 5 which is already in QM block.
 Coordinate D10 contains atom 8 which is already in QM block.
 Coordinate D10 contains atom 9 which is already in QM block.
 Coordinate D11 contains atom 1 which is already in QM block.
 Coordinate D11 contains atom 5 which is already in QM block.
 Coordinate D11 contains atom 8 which is already in QM block.
 Coordinate D11 contains atom 10 which is already in QM block.
 Coordinate D12 contains atom 1 which is already in QM block.
 Coordinate D12 contains atom 5 which is already in QM block.
 Coordinate D12 contains atom 8 which is already in QM block.
 Coordinate D12 contains atom 11 which is already in QM block.
 Coordinate D13 contains atom 6 which is already in QM block.
 Coordinate D13 contains atom 5 which is already in QM block.
 Coordinate D13 contains atom 8 which is already in QM block.
 Coordinate D13 contains atom 9 which is already in QM block.
 Coordinate D14 contains atom 6 which is already in QM block.
 Coordinate D14 contains atom 5 which is already in QM block.
 Coordinate D14 contains atom 8 which is already in QM block.
 Coordinate D14 contains atom 10 which is already in QM block.
 Coordinate D15 contains atom 6 which is already in QM block.
 Coordinate D15 contains atom 5 which is already in QM block.
 Coordinate D15 contains atom 8 which is already in QM block.
 Coordinate D15 contains atom 11 which is already in QM block.
 Coordinate D16 contains atom 7 which is already in QM block.
 Coordinate D16 contains atom 5 which is already in QM block.
 Coordinate D16 contains atom 8 which is already in QM block.
 Coordinate D16 contains atom 9 which is already in QM block.
 Coordinate D17 contains atom 7 which is already in QM block.
 Coordinate D17 contains atom 5 which is already in QM block.
 Coordinate D17 contains atom 8 which is already in QM block.
 Coordinate D17 contains atom 10 which is already in QM block.
 Coordinate D18 contains atom 7 which is already in QM block.
 Coordinate D18 contains atom 5 which is already in QM block.
 Coordinate D18 contains atom 8 which is already in QM block.
 Coordinate D18 contains atom 11 which is already in QM block.
 Saved connectivity
 I=     1 IAn=  6 IBond, RBType=     2  1.00     3  1.00     4  1.00     5  1.00
 I=     2 IAn=  1 IBond, RBType=     1  1.00
 I=     3 IAn=  1 IBond, RBType=     1  1.00
 I=     4 IAn=  1 IBond, RBType=     1  1.00
 I=     5 IAn=  6 IBond, RBType=     1  1.00     6  1.00     7  1.00     8  1.00
 I=     6 IAn=  1 IBond, RBType=     5  1.00
 I=     7 IAn=  1 IBond, RBType=     5  1.00
 I=     8 IAn=  6 IBond, RBType=     5  1.00     9  1.00    10  1.00    11  1.00
 I=     9 IAn=  1 IBond, RBType=     8  1.00
 I=    10 IAn=  1 IBond, RBType=     8  1.00
 I=    11 IAn=  1 IBond, RBType=     8  1.00
 ITRead=  0  0  0  0  0  0  0  0  0  0  0
 MicOpt= -1 -1 -1 -1 -1 -1 -1 -1 -1 -1 -1
 NAtoms=     11 NQM=       11 NQMF=       0 NMMI=      0 NMMIF=      0
                NMic=       0 NMicF=      0.
 No MM parameters found.
 Leave Link  101 at Sat Aug 10 16:33:05 2019, MaxMem=  4294967296 cpu:               6.0 elap:               0.4

 GradGradGradGradGradGradGradGradGradGradGradGradGradGradGradGradGradGrad
 Berny optimization.
 GetPCM: File not found, return IValue=0.
 Optmz: redundant internal coordinate code flag= 1
 Initialization pass.
                           ----------------------------
                           !    Initial Parameters    !
                           ! (Angstroms and Degrees)  !
 --------------------------                            --------------------------
 ! Name  Definition              Value          Derivative Info.                !
 --------------------------------------------------------------------------------
 ! R1    R(1,2)                  1.0962         calculate D2E/DX2 analytically  !
 ! R2    R(1,3)                  1.0962         calculate D2E/DX2 analytically  !
 ! R3    R(1,4)                  1.0952         calculate D2E/DX2 analytically  !
 ! R4    R(1,5)                  1.5317         calculate D2E/DX2 analytically  !
 ! R5    R(5,6)                  1.0978         calculate D2E/DX2 analytically  !
 ! R6    R(5,7)                  1.0978         calculate D2E/DX2 analytically  !
 ! R7    R(5,8)                  1.5317         calculate D2E/DX2 analytically  !
 ! R8    R(8,9)                  1.0962         calculate D2E/DX2 analytically  !
 ! R9    R(8,10)                 1.0952         calculate D2E/DX2 analytically  !
 ! R10   R(8,11)                 1.0962         calculate D2E/DX2 analytically  !
 ! A1    A(2,1,3)              107.4316         calculate D2E/DX2 analytically  !
 ! A2    A(2,1,4)              107.6758         calculate D2E/DX2 analytically  !
 ! A3    A(2,1,5)              111.1259         calculate D2E/DX2 analytically  !
 ! A4    A(3,1,4)              107.6758         calculate D2E/DX2 analytically  !
 ! A5    A(3,1,5)              111.1259         calculate D2E/DX2 analytically  !
 ! A6    A(4,1,5)              111.6118         calculate D2E/DX2 analytically  !
 ! A7    A(1,5,6)              109.4038         calculate D2E/DX2 analytically  !
 ! A8    A(1,5,7)              109.4038         calculate D2E/DX2 analytically  !
 ! A9    A(1,5,8)              112.9965         calculate D2E/DX2 analytically  !
 ! A10   A(6,5,7)              105.9886         calculate D2E/DX2 analytically  !
 ! A11   A(6,5,8)              109.4038         calculate D2E/DX2 analytically  !
 ! A12   A(7,5,8)              109.4038         calculate D2E/DX2 analytically  !
 ! A13   A(5,8,9)              111.1259         calculate D2E/DX2 analytically  !
 ! A14   A(5,8,10)             111.6118         calculate D2E/DX2 analytically  !
 ! A15   A(5,8,11)             111.1259         calculate D2E/DX2 analytically  !
 ! A16   A(9,8,10)             107.6758         calculate D2E/DX2 analytically  !
 ! A17   A(9,8,11)             107.4316         calculate D2E/DX2 analytically  !
 ! A18   A(10,8,11)            107.6758         calculate D2E/DX2 analytically  !
 ! D1    D(2,1,5,6)             62.3608         calculate D2E/DX2 analytically  !
 ! D2    D(2,1,5,7)            178.0625         calculate D2E/DX2 analytically  !
 ! D3    D(2,1,5,8)            -59.7883         calculate D2E/DX2 analytically  !
 ! D4    D(3,1,5,6)           -178.0625         calculate D2E/DX2 analytically  !
 ! D5    D(3,1,5,7)            -62.3608         calculate D2E/DX2 analytically  !
 ! D6    D(3,1,5,8)             59.7883         calculate D2E/DX2 analytically  !
 ! D7    D(4,1,5,6)            -57.8508         calculate D2E/DX2 analytically  !
 ! D8    D(4,1,5,7)             57.8508         calculate D2E/DX2 analytically  !
 ! D9    D(4,1,5,8)            180.0            calculate D2E/DX2 analytically  !
 ! D10   D(1,5,8,9)             59.7883         calculate D2E/DX2 analytically  !
 ! D11   D(1,5,8,10)           180.0            calculate D2E/DX2 analytically  !
 ! D12   D(1,5,8,11)           -59.7883         calculate D2E/DX2 analytically  !
 ! D13   D(6,5,8,9)            -62.3608         calculate D2E/DX2 analytically  !
 ! D14   D(6,5,8,10)            57.8508         calculate D2E/DX2 analytically  !
 ! D15   D(6,5,8,11)           178.0625         calculate D2E/DX2 analytically  !
 ! D16   D(7,5,8,9)           -178.0625         calculate D2E/DX2 analytically  !
 ! D17   D(7,5,8,10)           -57.8508         calculate D2E/DX2 analytically  !
 ! D18   D(7,5,8,11)            62.3608         calculate D2E/DX2 analytically  !
 --------------------------------------------------------------------------------
 Maximum allowed force set to 1.00D+20.
 Trust Radius=3.00D-01 FncErr=1.00D-07 GrdErr=1.00D-07 EigMax=2.50D+02 EigMin=1.00D-04
 Number of steps in this run=      2 maximum allowed number of steps=      2.
 GradGradGradGradGradGradGradGradGradGradGradGradGradGradGradGradGradGrad

 Leave Link  103 at Sat Aug 10 16:33:05 2019, MaxMem=  4294967296 cpu:               0.2 elap:               0.0
                          Input orientation:                          
 ---------------------------------------------------------------------
 Center     Atomic      Atomic             Coordinates (Angstroms)
 Number     Number       Type             X           Y           Z
 ---------------------------------------------------------------------
      1          6           0        0.000000    1.277217   -0.259582
      2          1           0        0.883656    1.322671   -0.906722
      3          1           0       -0.883656    1.322671   -0.906722
      4          1           0        0.000000    2.175574    0.366804
      5          6           0        0.000000    0.000000    0.585846
      6          1           0        0.876658    0.000000    1.246592
      7          1           0       -0.876658    0.000000    1.246592
      8          6           0        0.000000   -1.277217   -0.259582
      9          1           0        0.883656   -1.322671   -0.906722
     10          1           0        0.000000   -2.175574    0.366804
     11          1           0       -0.883656   -1.322671   -0.906722
 ---------------------------------------------------------------------
                    Distance matrix (angstroms):
                    1          2          3          4          5
     1  C    0.000000
     2  H    1.096223   0.000000
     3  H    1.096223   1.767312   0.000000
     4  H    1.095173   1.769226   1.769226   0.000000
     5  C    1.531676   2.181299   2.181299   2.186573   0.000000
     6  H    2.160642   2.527107   3.079761   2.505130   1.097777
     7  H    2.160642   3.079761   2.527107   2.505130   1.097777
     8  C    2.554434   2.821180   2.821180   3.509149   1.531676
     9  H    2.821180   2.645342   3.181387   3.826282   2.181299
    10  H    3.509149   3.826282   3.826282   4.351148   2.186573
    11  H    2.821180   3.181387   2.645342   3.826282   2.181299
                    6          7          8          9         10
     6  H    0.000000
     7  H    1.753316   0.000000
     8  C    2.160642   2.160642   0.000000
     9  H    2.527107   3.079761   1.096223   0.000000
    10  H    2.505130   2.505130   1.095173   1.769226   0.000000
    11  H    3.079761   2.527107   1.096223   1.767312   1.769226
                   11
    11  H    0.000000
 Stoichiometry    C3H8
 Framework group  C2V[C2(C),SGV(C2H2),SGV'(H2),X(H4)]
 Deg. of freedom     9
 Full point group                 C2V     NOp   4
 Largest Abelian subgroup         C2V     NOp   4
 Largest concise Abelian subgroup C2V     NOp   4
                         Standard orientation:                         
 ---------------------------------------------------------------------
 Center     Atomic      Atomic             Coordinates (Angstroms)
 Number     Number       Type             X           Y           Z
 ---------------------------------------------------------------------
      1          6           0       -0.000000    1.277217   -0.259582
      2          1           0        0.883656    1.322671   -0.906722
      3          1           0       -0.883656    1.322671   -0.906722
      4          1           0       -0.000000    2.175574    0.366804
      5          6           0        0.000000    0.000000    0.585846
      6          1           0        0.876658   -0.000000    1.246592
      7          1           0       -0.876658    0.000000    1.246592
      8          6           0       -0.000000   -1.277217   -0.259582
      9          1           0        0.883656   -1.322671   -0.906722
     10          1           0       -0.000000   -2.175574    0.366804
     11          1           0       -0.883656   -1.322671   -0.906722
 ---------------------------------------------------------------------
 Rotational constants (GHZ):          29.4734434           8.3615778           7.4109320
 Standard basis: 6-31G(d,p) (6D, 7F)
 There are    32 symmetry adapted cartesian basis functions of A1  symmetry.
 There are    12 symmetry adapted cartesian basis functions of A2  symmetry.
 There are    17 symmetry adapted cartesian basis functions of B1  symmetry.
 There are    24 symmetry adapted cartesian basis functions of B2  symmetry.
 There are    32 symmetry adapted basis functions of A1  symmetry.
 There are    12 symmetry adapted basis functions of A2  symmetry.
 There are    17 symmetry adapted basis functions of B1  symmetry.
 There are    24 symmetry adapted basis functions of B2  symmetry.
    85 basis functions,   140 primitive gaussians,    85 cartesian basis functions
    13 alpha electrons       13 beta electrons
       nuclear repulsion energy        82.2915743802 Hartrees.
 NAtoms=   11 NActive=   11 NUniq=    5 SFac= 4.00D+00 NAtFMM=   60 NAOKFM=F Big=F
 Integral buffers will be    131072 words long.
 Raffenetti 2 integral format.
 Two-electron integral symmetry is turned on.
 One-electron integrals computed using PRISM.
 NBasis=    85 RedAO= T EigKep=  6.07D-03  NBF=    32    12    17    24
 NBsUse=    85 1.00D-06 EigRej= -1.00D+00 NBFU=    32    12    17    24
 ExpMin= 1.61D-01 ExpMax= 3.05D+03 ExpMxC= 4.57D+02 IAcc=3 IRadAn=         5 AccDes= 0.00D+00
 Harris functional with IExCor=  402 and IRadAn=       5 diagonalized for initial guess.
 HarFok:  IExCor=  402 AccDes= 0.00D+00 IRadAn=         5 IDoV= 1 UseB2=F ITyADJ=14
 ICtDFT=  3500011 ScaDFX=  1.000000  1.000000  1.000000  1.000000
 FoFCou: FMM=F IPFlag=           0 FMFlag=      100000 FMFlg1=           0
         NFxFlg=           0 DoJE=T BraDBF=F KetDBF=T FulRan=T
         wScrn=  0.000000 ICntrl=       500 IOpCl=  0 I1Cent=   200000004 NGrid=           0
         NMat0=    1 NMatS0=      1 NMatT0=    0 NMatD0=    1 NMtDS0=    0 NMtDT0=    0
 Petite list used in FoFCou.
 Initial guess orbital symmetries:
       Occupied  (B2) (A1) (A1) (A1) (B2) (A1) (B1) (A1) (B2) (A2)
                 (B2) (A1) (B1)
       Virtual   (A1) (A1) (B1) (B2) (A1) (B2) (A2) (A1) (B1) (B2)
                 (A1) (B2) (B1) (A1) (A2) (A1) (B2) (B1) (B2) (A1)
                 (B1) (B2) (A1) (A2) (B1) (A1) (B2) (A1) (A2) (A1)
                 (B2) (B2) (A1) (B1) (A2) (B2) (A1) (A1) (B1) (A2)
                 (B1) (A2) (B2) (B1) (A1) (A1) (B1) (A2) (B2) (B1)
                 (B2) (A1) (A2) (B2) (A1) (B2) (A1) (B1) (A2) (B2)
                 (A1) (A1) (B2) (A1) (B1) (B2) (A2) (A1) (B1) (A1)
                 (B2) (A1)
 The electronic state of the initial guess is 1-A1.
 Keep R1 ints in memory in symmetry-blocked form, NReq=21252985.
 Requested convergence on RMS density matrix=1.00D-08 within 128 cycles.
 Requested convergence on MAX density matrix=1.00D-06.
 Requested convergence on             energy=1.00D-06.
 No special actions if energy rises.
 Integral accuracy reduced to 1.0D-05 until final iterations.
 Initial convergence to 1.0D-05 achieved.  Increase integral accuracy.
 SCF Done:  E(RB3LYP) =  -119.155359628     A.U. after   11 cycles
            NFock= 11  Conv=0.31D-08     -V/T= 2.0106
 DoSCS=F DFT=T ScalE2(SS,OS)=  1.000000  1.000000
 Range of M.O.s used for correlation:     1    85
 NBasis=    85 NAE=    13 NBE=    13 NFC=     0 NFV=     0
 NROrb=     85 NOA=    13 NOB=    13 NVA=    72 NVB=    72
 Symmetrizing basis deriv contribution to polar:
 IMax=3 JMax=2 DiffMx= 0.00D+00
 G2DrvN: will do    12 centers at a time, making    1 passes.
 Calling FoFCou, ICntrl=  3107 FMM=F I1Cent=   0 AccDes= 0.00D+00.
 End of G2Drv F.D. properties file   721 does not exist.
 End of G2Drv F.D. properties file   722 does not exist.
 End of G2Drv F.D. properties file   788 does not exist.
          IDoAtm=11111111111
          Differentiating once with respect to electric field.
                with respect to dipole field.
          Differentiating once with respect to nuclear coordinates.
 Keep R1 ints in memory in symmetry-blocked form, NReq=21207638.
          There are    18 degrees of freedom in the 1st order CPHF.  IDoFFX=4 NUNeed=    18.
     18 vectors produced by pass  0 Test12= 5.20D-15 5.56D-09 XBig12= 1.90D+01 2.22D+00.
 AX will form    18 AO Fock derivatives at one time.
     18 vectors produced by pass  1 Test12= 5.20D-15 5.56D-09 XBig12= 6.72D-01 2.23D-01.
     18 vectors produced by pass  2 Test12= 5.20D-15 5.56D-09 XBig12= 6.49D-03 2.71D-02.
     18 vectors produced by pass  3 Test12= 5.20D-15 5.56D-09 XBig12= 2.65D-05 1.07D-03.
     18 vectors produced by pass  4 Test12= 5.20D-15 5.56D-09 XBig12= 9.86D-08 5.87D-05.
     10 vectors produced by pass  5 Test12= 5.20D-15 5.56D-09 XBig12= 1.06D-10 1.96D-06.
      3 vectors produced by pass  6 Test12= 5.20D-15 5.56D-09 XBig12= 9.04D-14 5.42D-08.
 InvSVY:  IOpt=1 It=  1 EMax= 1.78D-15
 Solved reduced A of dimension   103 with    18 vectors.
 Isotropic polarizability for W=    0.000000       34.06 Bohr**3.
 End of Minotr F.D. properties file   721 does not exist.
 End of Minotr F.D. properties file   722 does not exist.
 End of Minotr F.D. properties file   788 does not exist.

 **********************************************************************

            Population analysis using the SCF Density.

 **********************************************************************

 Orbital symmetries:
       Occupied  (A1) (B2) (A1) (A1) (B2) (A1) (B1) (A1) (B2) (A2)
                 (B2) (A1) (B1)
       Virtual   (A1) (B1) (B2) (A1) (A1) (B1) (A2) (B2) (A1) (B2)
                 (A1) (B2) (B1) (A1) (A2) (A1) (B2) (B1) (B2) (B1)
                 (A1) (B2) (A2) (A1) (B1) (A1) (B2) (A1) (A2) (A1)
                 (B2) (B2) (A1) (B1) (A2) (B2) (A1) (A1) (A2) (B1)
                 (B1) (A2) (A1) (B1) (B2) (B1) (A1) (A2) (B2) (B1)
                 (B2) (A1) (A2) (B2) (A1) (B2) (A1) (B1) (A2) (A1)
                 (B2) (A1) (B2) (A1) (B1) (B2) (A2) (A1) (B1) (A1)
                 (B2) (A1)
 The electronic state is 1-A1.
 Alpha  occ. eigenvalues --  -10.17855 -10.17024 -10.17023  -0.77428  -0.67583
 Alpha  occ. eigenvalues --   -0.58007  -0.45088  -0.43074  -0.39300  -0.37584
 Alpha  occ. eigenvalues --   -0.33333  -0.33210  -0.32337
 Alpha virt. eigenvalues --    0.09611   0.14840   0.14996   0.15037   0.17047
 Alpha virt. eigenvalues --    0.19345   0.19410   0.19690   0.22686   0.26608
 Alpha virt. eigenvalues --    0.50895   0.51335   0.54350   0.54933   0.57314
 Alpha virt. eigenvalues --    0.66424   0.69718   0.70935   0.76698   0.85613
 Alpha virt. eigenvalues --    0.86402   0.86593   0.89567   0.90134   0.93015
 Alpha virt. eigenvalues --    0.94380   0.95821   1.03327   1.30676   1.31203
 Alpha virt. eigenvalues --    1.37583   1.53696   1.55221   1.66727   1.69600
 Alpha virt. eigenvalues --    1.83237   1.85361   1.91488   2.05275   2.05404
 Alpha virt. eigenvalues --    2.07002   2.08481   2.10936   2.11217   2.11384
 Alpha virt. eigenvalues --    2.24947   2.25111   2.29692   2.31795   2.42597
 Alpha virt. eigenvalues --    2.44814   2.50786   2.65220   2.69003   2.72203
 Alpha virt. eigenvalues --    2.74138   2.81170   2.87030   2.90791   2.91080
 Alpha virt. eigenvalues --    2.91146   3.15602   3.22317   3.31333   3.34273
 Alpha virt. eigenvalues --    3.42786   3.48602   3.50430   3.56728   4.29891
 Alpha virt. eigenvalues --    4.49399   4.64153
          Condensed to atoms (all electrons):
               1          2          3          4          5          6
     1  C    4.906916   0.386706   0.386706   0.380745   0.382064  -0.039228
     2  H    0.386706   0.614040  -0.034061  -0.032131  -0.036047  -0.005091
     3  H    0.386706  -0.034061   0.614040  -0.032131  -0.036047   0.005541
     4  H    0.380745  -0.032131  -0.032131   0.614214  -0.028237  -0.003129
     5  C    0.382064  -0.036047  -0.036047  -0.028237   4.829284   0.389528
     6  H   -0.039228  -0.005091   0.005541  -0.003129   0.389528   0.639878
     7  H   -0.039228   0.005541  -0.005091  -0.003129   0.389528  -0.040088
     8  C   -0.050323  -0.004405  -0.004405   0.004590   0.382064  -0.039228
     9  H   -0.004405   0.004829  -0.000426  -0.000013  -0.036047  -0.005091
    10  H    0.004590  -0.000013  -0.000013  -0.000195  -0.028237  -0.003129
    11  H   -0.004405  -0.000426   0.004829  -0.000013  -0.036047   0.005541
               7          8          9         10         11
     1  C   -0.039228  -0.050323  -0.004405   0.004590  -0.004405
     2  H    0.005541  -0.004405   0.004829  -0.000013  -0.000426
     3  H   -0.005091  -0.004405  -0.000426  -0.000013   0.004829
     4  H   -0.003129   0.004590  -0.000013  -0.000195  -0.000013
     5  C    0.389528   0.382064  -0.036047  -0.028237  -0.036047
     6  H   -0.040088  -0.039228  -0.005091  -0.003129   0.005541
     7  H    0.639878  -0.039228   0.005541  -0.003129  -0.005091
     8  C   -0.039228   4.906916   0.386706   0.380745   0.386706
     9  H    0.005541   0.386706   0.614040  -0.032131  -0.034061
    10  H   -0.003129   0.380745  -0.032131   0.614214  -0.032131
    11  H   -0.005091   0.386706  -0.034061  -0.032131   0.614040
 Mulliken charges:
               1
     1  C   -0.310139
     2  H    0.101058
     3  H    0.101058
     4  H    0.099429
     5  C   -0.171805
     6  H    0.094497
     7  H    0.094497
     8  C   -0.310139
     9  H    0.101058
    10  H    0.099429
    11  H    0.101058
 Sum of Mulliken charges =   0.00000
 Mulliken charges with hydrogens summed into heavy atoms:
               1
     1  C   -0.008595
     5  C    0.017189
     8  C   -0.008595
 APT charges:
               1
     1  C    0.086908
     2  H   -0.032645
     3  H   -0.032645
     4  H   -0.037217
     5  C    0.155388
     6  H   -0.062095
     7  H   -0.062095
     8  C    0.086908
     9  H   -0.032645
    10  H   -0.037217
    11  H   -0.032645
 Sum of APT charges =   0.00000
 APT charges with hydrogens summed into heavy atoms:
               1
     1  C   -0.015599
     5  C    0.031198
     8  C   -0.015599
 Electronic spatial extent (au):  <R**2>=            227.4565
 Charge=             -0.0000 electrons
 Dipole moment (field-independent basis, Debye):
    X=              0.0000    Y=             -0.0000    Z=              0.0492  Tot=              0.0492
 Quadrupole moment (field-independent basis, Debye-Ang):
   XX=            -21.2611   YY=            -21.8263   ZZ=            -21.5676
   XY=             -0.0000   XZ=             -0.0000   YZ=             -0.0000
 Traceless Quadrupole moment (field-independent basis, Debye-Ang):
   XX=              0.2906   YY=             -0.2746   ZZ=             -0.0159
   XY=             -0.0000   XZ=             -0.0000   YZ=             -0.0000
 Octapole moment (field-independent basis, Debye-Ang**2):
  XXX=              0.0000  YYY=              0.0000  ZZZ=              0.1896  XYY=             -0.0000
  XXY=              0.0000  XXZ=             -0.4582  XZZ=              0.0000  YZZ=             -0.0000
  YYZ=              1.1482  XYZ=              0.0000
 Hexadecapole moment (field-independent basis, Debye-Ang**3):
 XXXX=            -42.8218 YYYY=           -200.8001 ZZZZ=            -69.3387 XXXY=             -0.0000
 XXXZ=             -0.0000 YYYX=             -0.0000 YYYZ=              0.0000 ZZZX=             -0.0000
 ZZZY=             -0.0000 XXYY=            -41.4300 XXZZ=            -16.8805 YYZZ=            -44.7394
 XXYZ=             -0.0000 YYXZ=             -0.0000 ZZXY=             -0.0000
 N-N= 8.229157438025D+01 E-N=-4.392028221837D+02  KE= 1.179033017911D+02
 Symmetry A1   KE= 7.297146625978D+01
 Symmetry A2   KE= 2.013316003893D+00
 Symmetry B1   KE= 3.839082686857D+00
 Symmetry B2   KE= 3.907943684061D+01
  Exact polarizability:  32.256   0.000  36.851   0.000  -0.000  33.064
 Approx polarizability:  44.278  -0.000  43.418  -0.000   0.000  43.631
 Calling FoFJK, ICntrl=    100127 FMM=F ISym2X=1 I1Cent= 0 IOpClX= 0 NMat=1 NMatS=1 NMatT=0.
 Full mass-weighted force constant matrix:
 Low frequencies ---    0.0011    0.0012    0.0013    8.9736   12.3220   18.2970
 Low frequencies ---  227.5479  276.6415  367.3409
 Diagonal vibrational polarizability:
        0.5920257       0.3914456       0.4239445
 Harmonic frequencies (cm**-1), IR intensities (KM/Mole), Raman scattering
 activities (A**4/AMU), depolarization ratios for plane and unpolarized
 incident light, reduced masses (AMU), force constants (mDyne/A),
 and normal coordinates:
                           1         2         3         4         5
                          A2        B1        A1        B1        A1
       Frequencies ---   227.5458  276.6392  367.3409  754.2699  877.0701
    Reduced masses ---     1.0276    1.1370    2.0594    1.0794    2.5654
   Force constants ---     0.0313    0.0513    0.1637    0.3618    1.1627
    IR Intensities ---     0.0000    0.0007    0.1336    3.6039    0.7477
 Coord Atom Element:
   1     1     6         -0.02997   0.03910   0.00000   0.01688   0.00000
   2     1     6          0.00000  -0.00000   0.17304  -0.00000   0.21583
   3     1     6          0.00000  -0.00000   0.05624   0.00000  -0.06410
   1     2     1         -0.24343  -0.10281   0.00601  -0.13405  -0.02222
   2     2     1         -0.17532  -0.26162   0.38609   0.20749  -0.00104
   3     2     1         -0.30457  -0.21301   0.08041  -0.18843  -0.11295
   1     3     1         -0.24343  -0.10281  -0.00601  -0.13405   0.02222
   2     3     1          0.17532   0.26162   0.38609  -0.20749  -0.00104
   3     3     1          0.30457   0.21301   0.08041   0.18843  -0.11295
   1     4     1          0.36544   0.45832  -0.00000  -0.11471  -0.00000
   2     4     1         -0.00000   0.00000  -0.02417   0.00000   0.45284
   3     4     1          0.00000  -0.00000   0.34262  -0.00000  -0.39999
   1     5     6         -0.00000  -0.09323  -0.00000   0.07707   0.00000
   2     5     6         -0.00000  -0.00000   0.00000  -0.00000  -0.00000
   3     5     6         -0.00000   0.00000  -0.17163  -0.00000   0.20078
   1     6     1         -0.00000  -0.16322  -0.01326  -0.27699   0.00425
   2     6     1          0.00585  -0.00000   0.00000   0.00000  -0.00000
   3     6     1          0.00000   0.09300  -0.15129   0.46240   0.19383
   1     7     1         -0.00000  -0.16322   0.01326  -0.27699  -0.00425
   2     7     1         -0.00585   0.00000  -0.00000  -0.00000   0.00000
   3     7     1         -0.00000  -0.09300  -0.15129  -0.46240   0.19383
   1     8     6          0.02997   0.03910  -0.00000   0.01688  -0.00000
   2     8     6         -0.00000   0.00000  -0.17304   0.00000  -0.21583
   3     8     6          0.00000  -0.00000   0.05624  -0.00000  -0.06410
   1     9     1          0.24343  -0.10281   0.00601  -0.13405  -0.02222
   2     9     1         -0.17532   0.26162  -0.38609  -0.20749   0.00104
   3     9     1          0.30457  -0.21301   0.08041  -0.18843  -0.11295
   1    10     1         -0.36544   0.45832   0.00000  -0.11471   0.00000
   2    10     1          0.00000  -0.00000   0.02417   0.00000  -0.45284
   3    10     1          0.00000  -0.00000   0.34262   0.00000  -0.39999
   1    11     1          0.24343  -0.10281  -0.00601  -0.13405   0.02222
   2    11     1          0.17532  -0.26162  -0.38609   0.20749   0.00104
   3    11     1         -0.30457   0.21301   0.08041   0.18843  -0.11295
                           6         7         8         9        10
                          A2        B2        B2        A1        B1
       Frequencies ---   914.4393  935.6802 1063.1782 1182.9692 1220.1184
    Reduced masses ---     1.1006    1.1993    2.4119    1.7784    1.6634
   Force constants ---     0.5422    0.6186    1.6063    1.4663    1.4590
    IR Intensities ---     0.0000    2.1161    0.4465    1.2640    0.2459
 Coord Atom Element:
   1     1     6         -0.06497   0.00000   0.00000  -0.00000  -0.11692
   2     1     6          0.00000  -0.02254  -0.13952  -0.03791  -0.00000
   3     1     6         -0.00000  -0.08501   0.10086  -0.12903  -0.00000
   1     2     1          0.12688   0.03438   0.01770   0.06570   0.09654
   2     2     1         -0.30527   0.32722  -0.13746   0.35674  -0.25065
   3     2     1          0.23383  -0.01065   0.13234  -0.00388   0.25886
   1     3     1          0.12688  -0.03438  -0.01770  -0.06570   0.09654
   2     3     1          0.30527   0.32722  -0.13746   0.35674   0.25065
   3     3     1         -0.23383  -0.01065   0.13234  -0.00388  -0.25886
   1     4     1          0.19670  -0.00000  -0.00000   0.00000   0.22613
   2     4     1          0.00000  -0.32588  -0.17629  -0.30896  -0.00000
   3     4     1         -0.00000   0.35681   0.15445   0.27844   0.00000
   1     5     6          0.00000   0.00000  -0.00000  -0.00000   0.17972
   2     5     6          0.00000  -0.04413   0.26164   0.00000   0.00000
   3     5     6          0.00000  -0.00000   0.00000   0.18420   0.00000
   1     6     1          0.00000  -0.00000   0.00000   0.01439  -0.09699
   2     6     1          0.35940   0.20259   0.55476  -0.00000  -0.00000
   3     6     1         -0.00000   0.00000   0.00000   0.16905   0.36239
   1     7     1         -0.00000  -0.00000  -0.00000  -0.01439  -0.09699
   2     7     1         -0.35940   0.20259   0.55476  -0.00000  -0.00000
   3     7     1          0.00000  -0.00000   0.00000   0.16905  -0.36239
   1     8     6          0.06497   0.00000   0.00000   0.00000  -0.11692
   2     8     6         -0.00000  -0.02254  -0.13952   0.03791  -0.00000
   3     8     6         -0.00000   0.08501  -0.10086  -0.12903   0.00000
   1     9     1         -0.12688  -0.03438  -0.01770   0.06570   0.09654
   2     9     1         -0.30527   0.32722  -0.13746  -0.35674   0.25065
   3     9     1         -0.23383   0.01065  -0.13234  -0.00388   0.25886
   1    10     1         -0.19670  -0.00000   0.00000  -0.00000   0.22613
   2    10     1         -0.00000  -0.32588  -0.17629   0.30896  -0.00000
   3    10     1         -0.00000  -0.35681  -0.15445   0.27844  -0.00000
   1    11     1         -0.12688   0.03438   0.01770  -0.06570   0.09654
   2    11     1          0.30527   0.32722  -0.13746  -0.35674  -0.25065
   3    11     1          0.23383   0.01065  -0.13234  -0.00388  -0.25886
                          11        12        13        14        15
                          A2        B2        B2        A1        A1
       Frequencies ---  1322.8999 1375.2381 1420.4318 1436.0703 1504.5560
    Reduced masses ---     1.1239    1.3969    1.2957    1.2341    1.0475
   Force constants ---     1.1589    1.5565    1.5402    1.4995    1.3971
    IR Intensities ---     0.0000    5.1061    3.0200    1.3958    0.0167
 Coord Atom Element:
   1     1     6          0.07267   0.00000  -0.00000   0.00000  -0.00000
   2     1     6         -0.00000   0.01216  -0.09609   0.08270   0.00974
   3     1     6         -0.00000   0.05352   0.03959  -0.05847   0.01327
   1     2     1         -0.03749  -0.10790  -0.09961   0.15334  -0.15212
   2     2     1          0.12895   0.04384   0.37702  -0.34568  -0.04161
   3     2     1         -0.14064  -0.10840  -0.08214   0.13803  -0.20660
   1     3     1         -0.03749   0.10790   0.09961  -0.15334   0.15212
   2     3     1         -0.12895   0.04384   0.37702  -0.34568  -0.04161
   3     3     1          0.14064  -0.10840  -0.08214   0.13803  -0.20660
   1     4     1         -0.09991  -0.00000   0.00000  -0.00000   0.00000
   2     4     1         -0.00000   0.19052   0.17317  -0.21221  -0.08380
   3     4     1          0.00000  -0.19645  -0.32352   0.34610   0.12818
   1     5     6         -0.00000   0.00000  -0.00000  -0.00000   0.00000
   2     5     6          0.00000  -0.17138   0.06770   0.00000  -0.00000
   3     5     6          0.00000   0.00000  -0.00000   0.00800  -0.05541
   1     6     1          0.00000  -0.00000   0.00000  -0.00824  -0.36176
   2     6     1          0.63962   0.59731  -0.18609  -0.00000   0.00000
   3     6     1          0.00000   0.00000  -0.00000   0.02643   0.45690
   1     7     1         -0.00000   0.00000  -0.00000   0.00824   0.36176
   2     7     1         -0.63962   0.59731  -0.18609  -0.00000  -0.00000
   3     7     1          0.00000   0.00000  -0.00000   0.02643   0.45690
   1     8     6         -0.07267  -0.00000  -0.00000  -0.00000   0.00000
   2     8     6          0.00000   0.01216  -0.09609  -0.08270  -0.00974
   3     8     6          0.00000  -0.05352  -0.03959  -0.05847   0.01327
   1     9     1          0.03749   0.10790   0.09961   0.15334  -0.15212
   2     9     1          0.12895   0.04384   0.37702   0.34568   0.04161
   3     9     1          0.14064   0.10840   0.08214   0.13803  -0.20660
   1    10     1          0.09991  -0.00000   0.00000   0.00000  -0.00000
   2    10     1          0.00000   0.19052   0.17317   0.21221   0.08380
   3    10     1          0.00000   0.19645   0.32352   0.34610   0.12818
   1    11     1          0.03749  -0.10790  -0.09961  -0.15334   0.15212
   2    11     1         -0.12895   0.04384   0.37702   0.34568   0.04161
   3    11     1         -0.14064   0.10840   0.08214   0.13803  -0.20660
                          16        17        18        19        20
                          A2        B2        B1        A1        A1
       Frequencies ---  1504.7819 1512.6462 1522.5118 1528.5104 3029.9426
    Reduced masses ---     1.0389    1.0520    1.0407    1.0783    1.0607
   Force constants ---     1.3860    1.4182    1.4214    1.4844    5.7373
    IR Intensities ---     0.0000    1.4155    9.8300    2.8636   24.1165
 Coord Atom Element:
   1     1     6         -0.03758   0.00000  -0.03338   0.00000  -0.00000
   2     1     6         -0.00000  -0.01249   0.00000  -0.02194   0.00125
   3     1     6         -0.00000  -0.03504  -0.00000  -0.02322   0.01036
   1     2     1          0.03869   0.27618   0.03217   0.22332   0.07336
   2     2     1          0.33121   0.06955   0.33825   0.07519   0.00458
   3     2     1          0.10266   0.36189   0.09496   0.30056  -0.04960
   1     3     1          0.03869  -0.27618   0.03217  -0.22332  -0.07336
   2     3     1         -0.33121   0.06955  -0.33825   0.07519   0.00458
   3     3     1         -0.10265   0.36189  -0.09496   0.30056  -0.04960
   1     4     1          0.50304  -0.00000   0.49779  -0.00000  -0.00000
   2     4     1          0.00000   0.13415   0.00000   0.12400  -0.02488
   3     4     1         -0.00000  -0.22018  -0.00000  -0.21423  -0.02212
   1     5     6          0.00000   0.00000  -0.02763   0.00000   0.00000
   2     5     6          0.00000  -0.03533  -0.00000   0.00000   0.00000
   3     5     6          0.00000   0.00000  -0.00000  -0.06615  -0.06776
   1     6     1          0.00000   0.00000  -0.00021  -0.25202   0.56542
   2     6     1          0.04555   0.08578   0.00000   0.00000  -0.00000
   3     6     1         -0.00000  -0.00000  -0.04223   0.28335   0.40133
   1     7     1         -0.00000  -0.00000  -0.00021   0.25202  -0.56542
   2     7     1         -0.04555   0.08578   0.00000  -0.00000  -0.00000
   3     7     1         -0.00000  -0.00000   0.04223   0.28335   0.40133
   1     8     6          0.03758   0.00000  -0.03338  -0.00000   0.00000
   2     8     6          0.00000  -0.01249   0.00000   0.02194  -0.00125
   3     8     6         -0.00000   0.03504   0.00000  -0.02322   0.01036
   1     9     1         -0.03869  -0.27618   0.03217   0.22332   0.07336
   2     9     1          0.33121   0.06955  -0.33825  -0.07519  -0.00458
   3     9     1         -0.10265  -0.36189   0.09496   0.30056  -0.04960
   1    10     1         -0.50304  -0.00000   0.49779   0.00000   0.00000
   2    10     1         -0.00000   0.13415   0.00000  -0.12400   0.02488
   3    10     1         -0.00000   0.22018   0.00000  -0.21423  -0.02212
   1    11     1         -0.03869   0.27618   0.03217  -0.22332  -0.07336
   2    11     1         -0.33121   0.06955   0.33825  -0.07519  -0.00458
   3    11     1          0.10265  -0.36189  -0.09496   0.30056  -0.04960
                          21        22        23        24        25
                          B2        A1        B1        A2        B2
       Frequencies ---  3032.3363 3036.2637 3057.3178 3097.4522 3106.7311
    Reduced masses ---     1.0354    1.0361    1.1026    1.1026    1.1024
   Force constants ---     5.6092    5.6275    6.0720    6.2327    6.2692
    IR Intensities ---    35.4848   24.8668    6.8669    0.0000   29.5294
 Coord Atom Element:
   1     1     6          0.00000   0.00000   0.02453  -0.06565   0.00000
   2     1     6         -0.02644  -0.02788   0.00000  -0.00000  -0.03877
   3     1     6          0.02352   0.02179  -0.00000  -0.00000  -0.05292
   1     2     1          0.34955   0.33896  -0.15201   0.39864  -0.21113
   2     2     1          0.00857   0.01015  -0.00446   0.01372  -0.01485
   3     2     1         -0.24745  -0.24142   0.11363  -0.29768   0.14004
   1     3     1         -0.34955  -0.33896  -0.15201   0.39864   0.21113
   2     3     1          0.00857   0.01015   0.00446  -0.01372  -0.01485
   3     3     1         -0.24745  -0.24142  -0.11363   0.29768   0.14004
   1     4     1          0.00000  -0.00000   0.00722  -0.01599   0.00000
   2     4     1          0.29092   0.30679  -0.00000   0.00000   0.49486
   3     4     1          0.21707   0.22469  -0.00000   0.00000   0.34927
   1     5     6         -0.00000  -0.00000  -0.08611   0.00000   0.00000
   2     5     6          0.00151  -0.00000  -0.00000   0.00000  -0.00041
   3     5     6          0.00000   0.00801  -0.00000   0.00000   0.00000
   1     6     1         -0.00000  -0.07172   0.51730  -0.00000  -0.00000
   2     6     1         -0.00229   0.00000  -0.00000  -0.00338  -0.00108
   3     6     1         -0.00000  -0.04900   0.39492  -0.00000  -0.00000
   1     7     1          0.00000   0.07172   0.51730   0.00000  -0.00000
   2     7     1         -0.00229  -0.00000  -0.00000   0.00338  -0.00108
   3     7     1         -0.00000  -0.04900  -0.39492  -0.00000   0.00000
   1     8     6          0.00000  -0.00000   0.02453   0.06565   0.00000
   2     8     6         -0.02644   0.02788   0.00000   0.00000  -0.03877
   3     8     6         -0.02352   0.02179   0.00000  -0.00000   0.05292
   1     9     1         -0.34955   0.33896  -0.15201  -0.39864   0.21113
   2     9     1          0.00857  -0.01015   0.00446   0.01372  -0.01485
   3     9     1          0.24745  -0.24142   0.11363   0.29768  -0.14004
   1    10     1          0.00000   0.00000   0.00722   0.01599   0.00000
   2    10     1          0.29092  -0.30679  -0.00000  -0.00000   0.49486
   3    10     1         -0.21707   0.22469   0.00000   0.00000  -0.34927
   1    11     1          0.34955  -0.33896  -0.15201  -0.39864  -0.21113
   2    11     1          0.00857  -0.01015  -0.00446  -0.01372  -0.01485
   3    11     1          0.24745  -0.24142  -0.11363  -0.29768  -0.14004
                          26        27
                          B1        A1
       Frequencies ---  3107.7475 3109.0898
    Reduced masses ---     1.1030    1.1013
   Force constants ---     6.2766    6.2721
    IR Intensities ---   101.5541   54.6509
 Coord Atom Element:
   1     1     6         -0.06052   0.00000
   2     1     6         -0.00000  -0.03828
   3     1     6         -0.00000  -0.05220
   1     2     1          0.36827  -0.21522
   2     2     1          0.01673  -0.01733
   3     2     1         -0.27599   0.14354
   1     3     1          0.36827   0.21522
   2     3     1         -0.01673  -0.01733
   3     3     1          0.27599   0.14354
   1     4     1         -0.01170   0.00000
   2     4     1          0.00000   0.48471
   3     4     1          0.00000   0.34160
   1     5     6         -0.03653   0.00000
   2     5     6         -0.00000   0.00000
   3     5     6         -0.00000  -0.01106
   1     6     1          0.21324   0.07888
   2     6     1         -0.00000   0.00000
   3     6     1          0.16096   0.05866
   1     7     1          0.21324  -0.07888
   2     7     1         -0.00000  -0.00000
   3     7     1         -0.16096   0.05866
   1     8     6         -0.06052   0.00000
   2     8     6         -0.00000   0.03828
   3     8     6          0.00000  -0.05220
   1     9     1          0.36827  -0.21522
   2     9     1         -0.01673   0.01733
   3     9     1         -0.27599   0.14354
   1    10     1         -0.01170   0.00000
   2    10     1          0.00000  -0.48471
   3    10     1         -0.00000   0.34160
   1    11     1          0.36827   0.21522
   2    11     1          0.01673   0.01733
   3    11     1          0.27599   0.14354
 Harmonic frequencies (cm**-1), IR intensities (KM/Mole), Raman scattering
 activities (A**4/AMU), depolarization ratios for plane and unpolarized
 incident light, reduced masses (AMU), force constants (mDyne/A),
 and normal coordinates:
                      1                      2                      3
                     A2                     B1                     A1
 Frequencies --    227.5458               276.6392               367.3409
 Red. masses --      1.0276                 1.1370                 2.0594
 Frc consts  --      0.0313                 0.0513                 0.1637
 IR Inten    --      0.0000                 0.0007                 0.1336
  Atom  AN      X      Y      Z        X      Y      Z        X      Y      Z
     1   6    -0.03   0.00   0.00     0.04  -0.00  -0.00     0.00   0.17   0.06
     2   1    -0.24  -0.18  -0.30    -0.10  -0.26  -0.21     0.01   0.39   0.08
     3   1    -0.24   0.18   0.30    -0.10   0.26   0.21    -0.01   0.39   0.08
     4   1     0.37  -0.00   0.00     0.46   0.00  -0.00    -0.00  -0.02   0.34
     5   6    -0.00  -0.00  -0.00    -0.09  -0.00   0.00    -0.00   0.00  -0.17
     6   1    -0.00   0.01   0.00    -0.16  -0.00   0.09    -0.01   0.00  -0.15
     7   1    -0.00  -0.01  -0.00    -0.16   0.00  -0.09     0.01  -0.00  -0.15
     8   6     0.03  -0.00   0.00     0.04   0.00  -0.00    -0.00  -0.17   0.06
     9   1     0.24  -0.18   0.30    -0.10   0.26  -0.21     0.01  -0.39   0.08
    10   1    -0.37   0.00   0.00     0.46  -0.00  -0.00     0.00   0.02   0.34
    11   1     0.24   0.18  -0.30    -0.10  -0.26   0.21    -0.01  -0.39   0.08
                      4                      5                      6
                     B1                     A1                     A2
 Frequencies --    754.2699               877.0701               914.4393
 Red. masses --      1.0794                 2.5654                 1.1006
 Frc consts  --      0.3618                 1.1627                 0.5422
 IR Inten    --      3.6039                 0.7477                 0.0000
  Atom  AN      X      Y      Z        X      Y      Z        X      Y      Z
     1   6     0.02  -0.00   0.00     0.00   0.22  -0.06    -0.06   0.00  -0.00
     2   1    -0.13   0.21  -0.19    -0.02  -0.00  -0.11     0.13  -0.31   0.23
     3   1    -0.13  -0.21   0.19     0.02  -0.00  -0.11     0.13   0.31  -0.23
     4   1    -0.11   0.00  -0.00    -0.00   0.45  -0.40     0.20   0.00  -0.00
     5   6     0.08  -0.00  -0.00     0.00  -0.00   0.20     0.00   0.00   0.00
     6   1    -0.28   0.00   0.46     0.00  -0.00   0.19     0.00   0.36  -0.00
     7   1    -0.28  -0.00  -0.46    -0.00   0.00   0.19    -0.00  -0.36   0.00
     8   6     0.02   0.00  -0.00    -0.00  -0.22  -0.06     0.06  -0.00  -0.00
     9   1    -0.13  -0.21  -0.19    -0.02   0.00  -0.11    -0.13  -0.31  -0.23
    10   1    -0.11   0.00   0.00     0.00  -0.45  -0.40    -0.20  -0.00  -0.00
    11   1    -0.13   0.21   0.19     0.02   0.00  -0.11    -0.13   0.31   0.23
                      7                      8                      9
                     B2                     B2                     A1
 Frequencies --    935.6802              1063.1782              1182.9692
 Red. masses --      1.1993                 2.4119                 1.7784
 Frc consts  --      0.6186                 1.6063                 1.4663
 IR Inten    --      2.1161                 0.4465                 1.2640
  Atom  AN      X      Y      Z        X      Y      Z        X      Y      Z
     1   6     0.00  -0.02  -0.09     0.00  -0.14   0.10    -0.00  -0.04  -0.13
     2   1     0.03   0.33  -0.01     0.02  -0.14   0.13     0.07   0.36  -0.00
     3   1    -0.03   0.33  -0.01    -0.02  -0.14   0.13    -0.07   0.36  -0.00
     4   1    -0.00  -0.33   0.36    -0.00  -0.18   0.15     0.00  -0.31   0.28
     5   6     0.00  -0.04  -0.00    -0.00   0.26   0.00    -0.00   0.00   0.18
     6   1    -0.00   0.20   0.00     0.00   0.55   0.00     0.01  -0.00   0.17
     7   1    -0.00   0.20  -0.00    -0.00   0.55   0.00    -0.01  -0.00   0.17
     8   6     0.00  -0.02   0.09     0.00  -0.14  -0.10     0.00   0.04  -0.13
     9   1    -0.03   0.33   0.01    -0.02  -0.14  -0.13     0.07  -0.36  -0.00
    10   1    -0.00  -0.33  -0.36     0.00  -0.18  -0.15    -0.00   0.31   0.28
    11   1     0.03   0.33   0.01     0.02  -0.14  -0.13    -0.07  -0.36  -0.00
                     10                     11                     12
                     B1                     A2                     B2
 Frequencies --   1220.1184              1322.8999              1375.2381
 Red. masses --      1.6634                 1.1239                 1.3969
 Frc consts  --      1.4590                 1.1589                 1.5565
 IR Inten    --      0.2459                 0.0000                 5.1061
  Atom  AN      X      Y      Z        X      Y      Z        X      Y      Z
     1   6    -0.12  -0.00  -0.00     0.07  -0.00  -0.00     0.00   0.01   0.05
     2   1     0.10  -0.25   0.26    -0.04   0.13  -0.14    -0.11   0.04  -0.11
     3   1     0.10   0.25  -0.26    -0.04  -0.13   0.14     0.11   0.04  -0.11
     4   1     0.23  -0.00   0.00    -0.10  -0.00   0.00    -0.00   0.19  -0.20
     5   6     0.18   0.00   0.00    -0.00   0.00   0.00     0.00  -0.17   0.00
     6   1    -0.10  -0.00   0.36     0.00   0.64   0.00    -0.00   0.60   0.00
     7   1    -0.10  -0.00  -0.36    -0.00  -0.64   0.00     0.00   0.60   0.00
     8   6    -0.12  -0.00   0.00    -0.07   0.00   0.00    -0.00   0.01  -0.05
     9   1     0.10   0.25   0.26     0.04   0.13   0.14     0.11   0.04   0.11
    10   1     0.23  -0.00  -0.00     0.10   0.00   0.00    -0.00   0.19   0.20
    11   1     0.10  -0.25  -0.26     0.04  -0.13  -0.14    -0.11   0.04   0.11
                     13                     14                     15
                     B2                     A1                     A1
 Frequencies --   1420.4318              1436.0703              1504.5560
 Red. masses --      1.2957                 1.2341                 1.0475
 Frc consts  --      1.5402                 1.4995                 1.3971
 IR Inten    --      3.0200                 1.3958                 0.0167
  Atom  AN      X      Y      Z        X      Y      Z        X      Y      Z
     1   6    -0.00  -0.10   0.04     0.00   0.08  -0.06    -0.00   0.01   0.01
     2   1    -0.10   0.38  -0.08     0.15  -0.35   0.14    -0.15  -0.04  -0.21
     3   1     0.10   0.38  -0.08    -0.15  -0.35   0.14     0.15  -0.04  -0.21
     4   1     0.00   0.17  -0.32    -0.00  -0.21   0.35     0.00  -0.08   0.13
     5   6    -0.00   0.07  -0.00    -0.00   0.00   0.01     0.00  -0.00  -0.06
     6   1     0.00  -0.19  -0.00    -0.01  -0.00   0.03    -0.36   0.00   0.46
     7   1    -0.00  -0.19  -0.00     0.01  -0.00   0.03     0.36  -0.00   0.46
     8   6    -0.00  -0.10  -0.04    -0.00  -0.08  -0.06     0.00  -0.01   0.01
     9   1     0.10   0.38   0.08     0.15   0.35   0.14    -0.15   0.04  -0.21
    10   1     0.00   0.17   0.32     0.00   0.21   0.35    -0.00   0.08   0.13
    11   1    -0.10   0.38   0.08    -0.15   0.35   0.14     0.15   0.04  -0.21
                     16                     17                     18
                     A2                     B2                     B1
 Frequencies --   1504.7819              1512.6462              1522.5118
 Red. masses --      1.0389                 1.0520                 1.0407
 Frc consts  --      1.3860                 1.4182                 1.4214
 IR Inten    --      0.0000                 1.4155                 9.8300
  Atom  AN      X      Y      Z        X      Y      Z        X      Y      Z
     1   6    -0.04  -0.00  -0.00     0.00  -0.01  -0.04    -0.03   0.00  -0.00
     2   1     0.04   0.33   0.10     0.28   0.07   0.36     0.03   0.34   0.09
     3   1     0.04  -0.33  -0.10    -0.28   0.07   0.36     0.03  -0.34  -0.09
     4   1     0.50   0.00  -0.00    -0.00   0.13  -0.22     0.50   0.00  -0.00
     5   6     0.00   0.00   0.00     0.00  -0.04   0.00    -0.03  -0.00  -0.00
     6   1     0.00   0.05  -0.00     0.00   0.09  -0.00    -0.00   0.00  -0.04
     7   1    -0.00  -0.05  -0.00    -0.00   0.09  -0.00    -0.00   0.00   0.04
     8   6     0.04   0.00  -0.00     0.00  -0.01   0.04    -0.03   0.00   0.00
     9   1    -0.04   0.33  -0.10    -0.28   0.07  -0.36     0.03  -0.34   0.09
    10   1    -0.50  -0.00  -0.00    -0.00   0.13   0.22     0.50   0.00   0.00
    11   1    -0.04  -0.33   0.10     0.28   0.07  -0.36     0.03   0.34  -0.09
                     19                     20                     21
                     A1                     A1                     B2
 Frequencies --   1528.5104              3029.9426              3032.3363
 Red. masses --      1.0783                 1.0607                 1.0354
 Frc consts  --      1.4844                 5.7373                 5.6092
 IR Inten    --      2.8636                24.1165                35.4848
  Atom  AN      X      Y      Z        X      Y      Z        X      Y      Z
     1   6     0.00  -0.02  -0.02    -0.00   0.00   0.01     0.00  -0.03   0.02
     2   1     0.22   0.08   0.30     0.07   0.00  -0.05     0.35   0.01  -0.25
     3   1    -0.22   0.08   0.30    -0.07   0.00  -0.05    -0.35   0.01  -0.25
     4   1    -0.00   0.12  -0.21    -0.00  -0.02  -0.02     0.00   0.29   0.22
     5   6     0.00   0.00  -0.07     0.00   0.00  -0.07    -0.00   0.00   0.00
     6   1    -0.25   0.00   0.28     0.57  -0.00   0.40    -0.00  -0.00  -0.00
     7   1     0.25  -0.00   0.28    -0.57  -0.00   0.40     0.00  -0.00  -0.00
     8   6    -0.00   0.02  -0.02     0.00  -0.00   0.01     0.00  -0.03  -0.02
     9   1     0.22  -0.08   0.30     0.07  -0.00  -0.05    -0.35   0.01   0.25
    10   1     0.00  -0.12  -0.21     0.00   0.02  -0.02     0.00   0.29  -0.22
    11   1    -0.22  -0.08   0.30    -0.07  -0.00  -0.05     0.35   0.01   0.25
                     22                     23                     24
                     A1                     B1                     A2
 Frequencies --   3036.2637              3057.3178              3097.4522
 Red. masses --      1.0361                 1.1026                 1.1026
 Frc consts  --      5.6275                 6.0720                 6.2327
 IR Inten    --     24.8668                 6.8669                 0.0000
  Atom  AN      X      Y      Z        X      Y      Z        X      Y      Z
     1   6     0.00  -0.03   0.02     0.02   0.00  -0.00    -0.07  -0.00  -0.00
     2   1     0.34   0.01  -0.24    -0.15  -0.00   0.11     0.40   0.01  -0.30
     3   1    -0.34   0.01  -0.24    -0.15   0.00  -0.11     0.40  -0.01   0.30
     4   1    -0.00   0.31   0.22     0.01  -0.00  -0.00    -0.02   0.00   0.00
     5   6    -0.00  -0.00   0.01    -0.09  -0.00  -0.00     0.00   0.00   0.00
     6   1    -0.07   0.00  -0.05     0.52  -0.00   0.39    -0.00  -0.00  -0.00
     7   1     0.07  -0.00  -0.05     0.52  -0.00  -0.39     0.00   0.00  -0.00
     8   6    -0.00   0.03   0.02     0.02   0.00   0.00     0.07   0.00  -0.00
     9   1     0.34  -0.01  -0.24    -0.15   0.00   0.11    -0.40   0.01   0.30
    10   1     0.00  -0.31   0.22     0.01  -0.00   0.00     0.02  -0.00   0.00
    11   1    -0.34  -0.01  -0.24    -0.15  -0.00  -0.11    -0.40  -0.01  -0.30
                     25                     26                     27
                     B2                     B1                     A1
 Frequencies --   3106.7311              3107.7475              3109.0898
 Red. masses --      1.1024                 1.1030                 1.1013
 Frc consts  --      6.2692                 6.2766                 6.2721
 IR Inten    --     29.5294               101.5541                54.6509
  Atom  AN      X      Y      Z        X      Y      Z        X      Y      Z
     1   6     0.00  -0.04  -0.05    -0.06  -0.00  -0.00     0.00  -0.04  -0.05
     2   1    -0.21  -0.01   0.14     0.37   0.02  -0.28    -0.22  -0.02   0.14
     3   1     0.21  -0.01   0.14     0.37  -0.02   0.28     0.22  -0.02   0.14
     4   1     0.00   0.49   0.35    -0.01   0.00   0.00     0.00   0.48   0.34
     5   6     0.00  -0.00   0.00    -0.04  -0.00  -0.00     0.00   0.00  -0.01
     6   1    -0.00  -0.00  -0.00     0.21  -0.00   0.16     0.08   0.00   0.06
     7   1    -0.00  -0.00   0.00     0.21  -0.00  -0.16    -0.08  -0.00   0.06
     8   6     0.00  -0.04   0.05    -0.06  -0.00   0.00     0.00   0.04  -0.05
     9   1     0.21  -0.01  -0.14     0.37  -0.02  -0.28    -0.22   0.02   0.14
    10   1     0.00   0.49  -0.35    -0.01   0.00  -0.00     0.00  -0.48   0.34
    11   1    -0.21  -0.01  -0.14     0.37   0.02   0.28     0.22   0.02   0.14

 -------------------
 - Thermochemistry -
 -------------------
 Temperature   298.150 Kelvin.  Pressure   1.00000 Atm.
 Atom     1 has atomic number  6 and mass  12.00000
 Atom     2 has atomic number  1 and mass   1.00783
 Atom     3 has atomic number  1 and mass   1.00783
 Atom     4 has atomic number  1 and mass   1.00783
 Atom     5 has atomic number  6 and mass  12.00000
 Atom     6 has atomic number  1 and mass   1.00783
 Atom     7 has atomic number  1 and mass   1.00783
 Atom     8 has atomic number  6 and mass  12.00000
 Atom     9 has atomic number  1 and mass   1.00783
 Atom    10 has atomic number  1 and mass   1.00783
 Atom    11 has atomic number  1 and mass   1.00783
 Molecular mass:    44.06260 amu.
 Principal axes and moments of inertia in atomic units:
                           1         2         3
     Eigenvalues --    61.23279 215.83740 243.52419
           X            0.00000   0.00000   1.00000
           Y            1.00000   0.00000  -0.00000
           Z           -0.00000   1.00000   0.00000
 This molecule is an asymmetric top.
 Rotational symmetry number  2.
 Rotational temperatures (Kelvin)      1.41450     0.40129     0.35567
 Rotational constants (GHZ):          29.47344     8.36158     7.41093
 Zero-point vibrational energy     272292.7 (Joules/Mol)
                                   65.07951 (Kcal/Mol)
 Warning -- explicit consideration of   3 degrees of freedom as
           vibrations may cause significant error
 Vibrational temperatures:    327.39   398.02   528.52  1085.23  1261.91
          (Kelvin)           1315.67  1346.24  1529.68  1702.03  1755.48
                             1903.36  1978.66  2043.68  2066.18  2164.72
                             2165.05  2176.36  2190.55  2199.19  4359.41
                             4362.86  4368.51  4398.80  4456.54  4469.89
                             4471.36  4473.29
 
 Zero-point correction=                           0.103711 (Hartree/Particle)
 Thermal correction to Energy=                    0.108222
 Thermal correction to Enthalpy=                  0.109166
 Thermal correction to Gibbs Free Energy=         0.078723
 Sum of electronic and zero-point Energies=           -119.051649
 Sum of electronic and thermal Energies=              -119.047138
 Sum of electronic and thermal Enthalpies=            -119.046194
 Sum of electronic and thermal Free Energies=         -119.076637
 
                     E (Thermal)             CV                S
                      KCal/Mol        Cal/Mol-Kelvin    Cal/Mol-Kelvin
 Total                   67.910             14.735             64.073
 Electronic               0.000              0.000              0.000
 Translational            0.889              2.981             37.275
 Rotational               0.889              2.981             21.314
 Vibrational             66.133              8.773              5.484
 Vibration     1          0.651              1.799              1.898
 Vibration     2          0.678              1.717              1.554
 Vibration     3          0.740              1.539              1.091
                       Q            Log10(Q)             Ln(Q)
 Total Bot       0.616787D-36        -36.209865        -83.376296
 Total V=0       0.311708D+12         11.493749         26.465334
 Vib (Bot)       0.528365D-47        -47.277066       -108.859468
 Vib (Bot)    1  0.866501D+00         -0.062231         -0.143292
 Vib (Bot)    2  0.696216D+00         -0.157256         -0.362095
 Vib (Bot)    3  0.496510D+00         -0.304072         -0.700152
 Vib (V=0)       0.267022D+01          0.426548          0.982162
 Vib (V=0)    1  0.150041D+01          0.176210          0.405740
 Vib (V=0)    2  0.135716D+01          0.132630          0.305392
 Vib (V=0)    3  0.120464D+01          0.080858          0.186183
 Electronic      0.100000D+01          0.000000          0.000000
 Translational   0.114963D+08          7.060559         16.257538
 Rotational      0.101541D+05          4.006642          9.225634
                           ----------------------------
                           ! Normal Mode     1        !
 --------------------------                            --------------------------
 ! Name  Definition              Value          Relative Weight (%)             !
 --------------------------------------------------------------------------------
 ! R1    R(1,2)                  0.0005                  0.0                    !
 ! R2    R(1,3)                 -0.0005                  0.0                    !
 ! R3    R(1,4)                  0.0                     0.0                    !
 ! R4    R(1,5)                  0.0                     0.0                    !
 ! R5    R(5,6)                  0.0                     0.0                    !
 ! R6    R(5,7)                  0.0                     0.0                    !
 ! R7    R(5,8)                  0.0                     0.0                    !
 ! R8    R(8,9)                 -0.0005                  0.0                    !
 ! R9    R(8,10)                 0.0                     0.0                    !
 ! R10   R(8,11)                 0.0005                  0.0                    !
 ! A1    A(2,1,3)                0.0                     0.0                    !
 ! A2    A(2,1,4)               -0.0006                  0.0                    !
 ! A3    A(2,1,5)                0.0023                  0.1                    !
 ! A4    A(3,1,4)                0.0006                  0.0                    !
 ! A5    A(3,1,5)               -0.0023                  0.1                    !
 ! A6    A(4,1,5)                0.0                     0.0                    !
 ! A7    A(1,5,6)                0.0063                  0.2                    !
 ! A8    A(1,5,7)               -0.0063                  0.2                    !
 ! A9    A(1,5,8)                0.0                     0.0                    !
 ! A10   A(6,5,7)                0.0                     0.0                    !
 ! A11   A(6,5,8)               -0.0063                  0.2                    !
 ! A12   A(7,5,8)                0.0063                  0.2                    !
 ! A13   A(5,8,9)               -0.0023                  0.1                    !
 ! A14   A(5,8,10)               0.0                     0.0                    !
 ! A15   A(5,8,11)               0.0023                  0.1                    !
 ! A16   A(9,8,10)               0.0006                  0.0                    !
 ! A17   A(9,8,11)               0.0                     0.0                    !
 ! A18   A(10,8,11)             -0.0006                  0.0                    !
 ! D1    D(2,1,5,6)              0.2138                  5.5                    !
 ! D2    D(2,1,5,7)              0.2138                  5.5                    !
 ! D3    D(2,1,5,8)              0.2173                  5.6                    !
 ! D4    D(3,1,5,6)              0.2138                  5.5                    !
 ! D5    D(3,1,5,7)              0.2138                  5.5                    !
 ! D6    D(3,1,5,8)              0.2173                  5.6                    !
 ! D7    D(4,1,5,6)              0.2129                  5.5                    !
 ! D8    D(4,1,5,7)              0.2129                  5.5                    !
 ! D9    D(4,1,5,8)              0.2165                  5.5                    !
 ! D10   D(1,5,8,9)              0.2173                  5.6                    !
 ! D11   D(1,5,8,10)             0.2165                  5.5                    !
 ! D12   D(1,5,8,11)             0.2173                  5.6                    !
 ! D13   D(6,5,8,9)              0.2138                  5.5                    !
 ! D14   D(6,5,8,10)             0.2129                  5.5                    !
 ! D15   D(6,5,8,11)             0.2138                  5.5                    !
 ! D16   D(7,5,8,9)              0.2138                  5.5                    !
 ! D17   D(7,5,8,10)             0.2129                  5.5                    !
 ! D18   D(7,5,8,11)             0.2138                  5.5                    !
 --------------------------------------------------------------------------------
                           ----------------------------
                           ! Normal Mode     2        !
 --------------------------                            --------------------------
 ! Name  Definition              Value          Relative Weight (%)             !
 --------------------------------------------------------------------------------
 ! R1    R(1,2)                  0.0005                  0.0                    !
 ! R2    R(1,3)                 -0.0005                  0.0                    !
 ! R3    R(1,4)                  0.0                     0.0                    !
 ! R4    R(1,5)                  0.0                     0.0                    !
 ! R5    R(5,6)                  0.0001                  0.0                    !
 ! R6    R(5,7)                 -0.0001                  0.0                    !
 ! R7    R(5,8)                  0.0                     0.0                    !
 ! R8    R(8,9)                  0.0005                  0.0                    !
 ! R9    R(8,10)                 0.0                     0.0                    !
 ! R10   R(8,11)                -0.0005                  0.0                    !
 ! A1    A(2,1,3)                0.0                     0.0                    !
 ! A2    A(2,1,4)               -0.001                   0.0                    !
 ! A3    A(2,1,5)               -0.0126                  0.3                    !
 ! A4    A(3,1,4)                0.001                   0.0                    !
 ! A5    A(3,1,5)                0.0126                  0.3                    !
 ! A6    A(4,1,5)                0.0                     0.0                    !
 ! A7    A(1,5,6)               -0.0125                  0.3                    !
 ! A8    A(1,5,7)                0.0125                  0.3                    !
 ! A9    A(1,5,8)                0.0                     0.0                    !
 ! A10   A(6,5,7)                0.0                     0.0                    !
 ! A11   A(6,5,8)               -0.0125                  0.3                    !
 ! A12   A(7,5,8)                0.0125                  0.3                    !
 ! A13   A(5,8,9)               -0.0126                  0.3                    !
 ! A14   A(5,8,10)               0.0                     0.0                    !
 ! A15   A(5,8,11)               0.0126                  0.3                    !
 ! A16   A(9,8,10)              -0.001                   0.0                    !
 ! A17   A(9,8,11)               0.0                     0.0                    !
 ! A18   A(10,8,11)              0.001                   0.0                    !
 ! D1    D(2,1,5,6)              0.2339                  5.2                    !
 ! D2    D(2,1,5,7)              0.2339                  5.2                    !
 ! D3    D(2,1,5,8)              0.2589                  5.7                    !
 ! D4    D(3,1,5,6)              0.2339                  5.2                    !
 ! D5    D(3,1,5,7)              0.2339                  5.2                    !
 ! D6    D(3,1,5,8)              0.2589                  5.7                    !
 ! D7    D(4,1,5,6)              0.2438                  5.4                    !
 ! D8    D(4,1,5,7)              0.2438                  5.4                    !
 ! D9    D(4,1,5,8)              0.2688                  5.9                    !
 ! D10   D(1,5,8,9)             -0.2589                  5.7                    !
 ! D11   D(1,5,8,10)            -0.2688                  5.9                    !
 ! D12   D(1,5,8,11)            -0.2589                  5.7                    !
 ! D13   D(6,5,8,9)             -0.2339                  5.2                    !
 ! D14   D(6,5,8,10)            -0.2438                  5.4                    !
[...]
 Variable       Old X    -DE/DX   Delta X   Delta X   Delta X     New X
                                 (Linear)    (Quad)   (Total)
    R1        2.07156  -0.00007   0.00000  -0.00020  -0.00020   2.07136
    R2        2.07156  -0.00007   0.00000  -0.00020  -0.00020   2.07136
    R3        2.06958  -0.00012   0.00000  -0.00033  -0.00033   2.06925
    R4        2.89445  -0.00003   0.00000  -0.00006  -0.00006   2.89439
    R5        2.07450  -0.00006   0.00000  -0.00018  -0.00018   2.07432
    R6        2.07450  -0.00006   0.00000  -0.00018  -0.00018   2.07432
    R7        2.89445  -0.00003   0.00000  -0.00006  -0.00006   2.89439
    R8        2.07156  -0.00007   0.00000  -0.00020  -0.00020   2.07136
    R9        2.06958  -0.00012   0.00000  -0.00033  -0.00033   2.06925
   R10        2.07156  -0.00007   0.00000  -0.00020  -0.00020   2.07136
    A1        1.87504  -0.00002   0.00000  -0.00001  -0.00001   1.87503
    A2        1.87930   0.00002   0.00000   0.00006   0.00006   1.87936
    A3        1.93951   0.00003   0.00000   0.00023   0.00023   1.93975
    A4        1.87930   0.00002   0.00000   0.00006   0.00006   1.87936
    A5        1.93951   0.00003   0.00000   0.00023   0.00023   1.93975
    A6        1.94799  -0.00008   0.00000  -0.00057  -0.00057   1.94742
    A7        1.90946   0.00001   0.00000  -0.00004  -0.00004   1.90942
    A8        1.90946   0.00001   0.00000  -0.00004  -0.00004   1.90942
    A9        1.97216  -0.00003   0.00000  -0.00003  -0.00003   1.97213
   A10        1.84985   0.00000   0.00000   0.00019   0.00019   1.85004
   A11        1.90946   0.00001   0.00000  -0.00004  -0.00004   1.90942
   A12        1.90946   0.00001   0.00000  -0.00004  -0.00004   1.90942
   A13        1.93951   0.00003   0.00000   0.00023   0.00023   1.93975
   A14        1.94799  -0.00008   0.00000  -0.00057  -0.00057   1.94742
   A15        1.93951   0.00003   0.00000   0.00023   0.00023   1.93975
   A16        1.87930   0.00002   0.00000   0.00006   0.00006   1.87936
   A17        1.87504  -0.00002   0.00000  -0.00001  -0.00001   1.87503
   A18        1.87930   0.00002   0.00000   0.00006   0.00006   1.87936
    D1        1.08840  -0.00001   0.00000  -0.00024  -0.00024   1.08816
    D2        3.10778  -0.00000   0.00000  -0.00006  -0.00006   3.10772
    D3       -1.04350  -0.00001   0.00000  -0.00015  -0.00015  -1.04365
    D4       -3.10778   0.00000   0.00000   0.00006   0.00006  -3.10772
    D5       -1.08840   0.00001   0.00000   0.00024   0.00024  -1.08816
    D6        1.04350   0.00001   0.00000   0.00015   0.00015   1.04365
    D7       -1.00969  -0.00001   0.00000  -0.00009  -0.00009  -1.00978
    D8        1.00969   0.00001   0.00000   0.00009   0.00009   1.00978
    D9        3.14159   0.00000   0.00000  -0.00000   0.00000   3.14159
   D10        1.04350   0.00001   0.00000   0.00015   0.00015   1.04365
   D11        3.14159  -0.00000   0.00000   0.00000   0.00000   3.14159
   D12       -1.04350  -0.00001   0.00000  -0.00015  -0.00015  -1.04365
   D13       -1.08840   0.00001   0.00000   0.00024   0.00024  -1.08816
   D14        1.00969   0.00001   0.00000   0.00009   0.00009   1.00978
   D15        3.10778  -0.00000   0.00000  -0.00006  -0.00006   3.10772
   D16       -3.10778   0.00000   0.00000   0.00006   0.00006  -3.10772
   D17       -1.00969  -0.00001   0.00000  -0.00009  -0.00009  -1.00978
   D18        1.08840  -0.00001   0.00000  -0.00024  -0.00024   1.08816
         Item               Value     Threshold  Converged?
 Maximum Force            0.000120     0.000450     YES
 RMS     Force            0.000041     0.000300     YES
 Maximum Displacement     0.000997     0.001800     YES
 RMS     Displacement     0.000299     0.001200     YES
 Predicted change in Energy=-1.516437D-07
 Optimization completed.
    -- Stationary point found.
                           ----------------------------
                           !   Optimized Parameters   !
                           ! (Angstroms and Degrees)  !
 --------------------------                            --------------------------
 ! Name  Definition              Value          Derivative Info.                !
 --------------------------------------------------------------------------------
 ! R1    R(1,2)                  1.0962         -DE/DX =   -0.0001              !
 ! R2    R(1,3)                  1.0962         -DE/DX =   -0.0001              !
 ! R3    R(1,4)                  1.0952         -DE/DX =   -0.0001              !
 ! R4    R(1,5)                  1.5317         -DE/DX =    0.0                 !
 ! R5    R(5,6)                  1.0978         -DE/DX =   -0.0001              !
 ! R6    R(5,7)                  1.0978         -DE/DX =   -0.0001              !
 ! R7    R(5,8)                  1.5317         -DE/DX =    0.0                 !
 ! R8    R(8,9)                  1.0962         -DE/DX =   -0.0001              !
 ! R9    R(8,10)                 1.0952         -DE/DX =   -0.0001              !
 ! R10   R(8,11)                 1.0962         -DE/DX =   -0.0001              !
 ! A1    A(2,1,3)              107.4316         -DE/DX =    0.0                 !
 ! A2    A(2,1,4)              107.6758         -DE/DX =    0.0                 !
 ! A3    A(2,1,5)              111.1259         -DE/DX =    0.0                 !
 ! A4    A(3,1,4)              107.6758         -DE/DX =    0.0                 !
 ! A5    A(3,1,5)              111.1259         -DE/DX =    0.0                 !
 ! A6    A(4,1,5)              111.6118         -DE/DX =   -0.0001              !
 ! A7    A(1,5,6)              109.4038         -DE/DX =    0.0                 !
 ! A8    A(1,5,7)              109.4038         -DE/DX =    0.0                 !
 ! A9    A(1,5,8)              112.9965         -DE/DX =    0.0                 !
 ! A10   A(6,5,7)              105.9886         -DE/DX =    0.0                 !
 ! A11   A(6,5,8)              109.4038         -DE/DX =    0.0                 !
 ! A12   A(7,5,8)              109.4038         -DE/DX =    0.0                 !
 ! A13   A(5,8,9)              111.1259         -DE/DX =    0.0                 !
 ! A14   A(5,8,10)             111.6118         -DE/DX =   -0.0001              !
 ! A15   A(5,8,11)             111.1259         -DE/DX =    0.0                 !
 ! A16   A(9,8,10)             107.6758         -DE/DX =    0.0                 !
 ! A17   A(9,8,11)             107.4316         -DE/DX =    0.0                 !
 ! A18   A(10,8,11)            107.6758         -DE/DX =    0.0                 !
 ! D1    D(2,1,5,6)             62.3608         -DE/DX =    0.0                 !
 ! D2    D(2,1,5,7)            178.0625         -DE/DX =    0.0                 !
 ! D3    D(2,1,5,8)            -59.7883         -DE/DX =    0.0                 !
 ! D4    D(3,1,5,6)           -178.0625         -DE/DX =    0.0                 !
 ! D5    D(3,1,5,7)            -62.3608         -DE/DX =    0.0                 !
 ! D6    D(3,1,5,8)             59.7883         -DE/DX =    0.0                 !
 ! D7    D(4,1,5,6)            -57.8508         -DE/DX =    0.0                 !
 ! D8    D(4,1,5,7)             57.8508         -DE/DX =    0.0                 !
 ! D9    D(4,1,5,8)            180.0            -DE/DX =    0.0                 !
 ! D10   D(1,5,8,9)             59.7883         -DE/DX =    0.0                 !
 ! D11   D(1,5,8,10)           180.0            -DE/DX =    0.0                 !
 ! D12   D(1,5,8,11)           -59.7883         -DE/DX =    0.0                 !
 ! D13   D(6,5,8,9)            -62.3608         -DE/DX =    0.0                 !
 ! D14   D(6,5,8,10)            57.8508         -DE/DX =    0.0                 !
 ! D15   D(6,5,8,11)           178.0625         -DE/DX =    0.0                 !
 ! D16   D(7,5,8,9)           -178.0625         -DE/DX =    0.0                 !
 ! D17   D(7,5,8,10)           -57.8508         -DE/DX =    0.0                 !
 ! D18   D(7,5,8,11)            62.3608         -DE/DX =    0.0                 !
 --------------------------------------------------------------------------------
 GradGradGradGradGradGradGradGradGradGradGradGradGradGradGradGradGradGrad

 Leave Link  103 at Sat Aug 10 16:33:12 2019, MaxMem=  4294967296 cpu:               0.4 elap:               0.0

 ----------------------------------------------------------------------

 Electric dipole moment (input orientation):
 (Debye = 10**-18 statcoulomb cm , SI units = C m)
                  (au)            (Debye)         (10**-30 SI)
   Tot        0.193434D-01      0.491660D-01      0.164000D+00
   x          0.000000D+00      0.000000D+00      0.000000D+00
   y          0.000000D+00      0.000000D+00      0.000000D+00
   z          0.193434D-01      0.491660D-01      0.164000D+00

 Dipole polarizability, Alpha (input orientation).
 (esu units = cm**3 , SI units = C**2 m**2 J**-1)
 Alpha(0;0):
               (au)            (10**-24 esu)      (10**-40 SI)
   iso        0.340569D+02      0.504671D+01      0.561522D+01
   aniso      0.424839D+01      0.629546D+00      0.700465D+00
   xx         0.322563D+02      0.477990D+01      0.531835D+01
   yx         0.000000D+00      0.000000D+00      0.000000D+00
   yy         0.368505D+02      0.546068D+01      0.607583D+01
   zx         0.000000D+00      0.000000D+00      0.000000D+00
   zy         0.000000D+00      0.000000D+00      0.000000D+00
   zz         0.330638D+02      0.489955D+01      0.545149D+01

 ----------------------------------------------------------------------

 Dipole orientation:
     6          0.00000000          2.41359033         -0.49053889
     1          1.66986783          2.49948594         -1.71345625
     1         -1.66986783          2.49948594         -1.71345625
     1         -0.00000000          4.11123902          0.69315910
     6         -0.00000000          0.00000000          1.10708849
     1          1.65664352          0.00000000          2.35571747
     1         -1.65664352          0.00000000          2.35571747
     6          0.00000000         -2.41359033         -0.49053889
     1          1.66986783         -2.49948594         -1.71345625
     1         -0.00000000         -4.11123902          0.69315910
     1         -1.66986783         -2.49948594         -1.71345625

 Electric dipole moment (dipole orientation):
 (Debye = 10**-18 statcoulomb cm , SI units = C m)
                  (au)            (Debye)         (10**-30 SI)
   Tot        0.193434D-01      0.491660D-01      0.164000D+00
   x          0.000000D+00      0.000000D+00      0.000000D+00
   y          0.000000D+00      0.000000D+00      0.000000D+00
   z          0.193434D-01      0.491660D-01      0.164000D+00

 Dipole polarizability, Alpha (dipole orientation).
 (esu units = cm**3 , SI units = C**2 m**2 J**-1)
 Alpha(0;0):
               (au)            (10**-24 esu)      (10**-40 SI)
   iso        0.340569D+02      0.504671D+01      0.561522D+01
   aniso      0.424839D+01      0.629546D+00      0.700465D+00
   xx         0.322563D+02      0.477990D+01      0.531835D+01
   yx         0.000000D+00      0.000000D+00      0.000000D+00
   yy         0.368505D+02      0.546068D+01      0.607583D+01
   zx         0.000000D+00      0.000000D+00      0.000000D+00
   zy         0.000000D+00      0.000000D+00      0.000000D+00
   zz         0.330638D+02      0.489955D+01      0.545149D+01

 ----------------------------------------------------------------------

 Test job not archived.
 1\1\NSC-N1079\Freq\RB3LYP\6-31G(d,p)\C3H8\X_KJEJO\10-Aug-2019\0\\# fre
 q(hpmodes,intmodes) iop(1/33=3) b3lyp/6-31g(d,p) geom=connectivity iop
 (7/75=-1)\\name\\0,1\C,0.,1.277217,-0.259582\H,0.883656,1.322671,-0.90
 6722\H,-0.883656,1.322671,-0.906722\H,0.,2.175574,0.366804\C,0.,0.,0.5
 85846\H,0.876658,0.,1.246592\H,-0.876658,0.,1.246592\C,0.,-1.277217,-0
 .259582\H,0.883656,-1.322671,-0.906722\H,0.,-2.175574,0.366804\H,-0.88
 3656,-1.322671,-0.906722\\Version=ES64L-G16RevB.01\State=1-A1\HF=-119.
 1553596\RMSD=3.105e-09\RMSF=5.291e-05\ZeroPoint=0.1037108\Thermal=0.10
 82217\Dipole=0.,0.,0.0193434\DipoleDeriv=0.1287948,0.,0.,0.,0.0306508,
 0.028317,0.,-0.0083795,0.1012776,-0.0899884,-0.0169722,0.111103,0.0135
 925,0.0313218,0.0100013,0.0997111,0.0407387,-0.0392683,-0.0899884,0.01
 69722,-0.111103,-0.0135925,0.0313218,0.0100013,-0.0997111,0.0407387,-0
 .0392683,0.0618438,0.,0.,0.,-0.1522099,-0.0747909,0.,-0.0943156,-0.021
 2851,0.1621318,0.,0.,0.,0.1690875,0.,0.,0.,0.134945,-0.0917278,0.,-0.1
 281572,0.,-0.0256283,0.,-0.1092309,0.,-0.0689284,-0.0917278,0.,0.12815
 72,0.,-0.0256283,0.,0.1092309,0.,-0.0689284,0.1287948,0.,0.,0.,0.03065
 08,-0.028317,0.,0.0083795,0.1012776,-0.0899884,0.0169723,0.111103,-0.0
 135925,0.0313218,-0.0100013,0.0997111,-0.0407387,-0.0392683,0.0618438,
 0.,0.,0.,-0.1522099,0.0747908,0.,0.0943156,-0.0212851,-0.0899884,-0.01
 69723,-0.111103,0.0135925,0.0313218,-0.0100013,-0.0997111,-0.0407387,-
 0.0392683\Polar=32.2563393,0.,36.8505231,0.,0.,33.0638268\Quadrupole=0
 .216026,-0.2041839,-0.0118421,0.,0.,0.\PG=C02V [C2(C1),SGV(C2H2),SGV'(
 H2),X(H4)]\NImag=0\\0.56781899,0.,0.50846533,0.,0.04924072,0.54131470,
 -0.22050377,-0.00614851,0.12294694,0.23668735,-0.00577280,-0.04858409,
 0.00335842,0.00670948,0.05125280,0.12273618,0.00368156,-0.13678052,-0.
 13620849,-0.00746507,0.14718957,-0.22050377,0.00614851,-0.12294694,-0.
 02084053,0.00022195,-0.01614638,0.23668735,0.00577280,-0.04858409,0.00
 335842,-0.00022195,-0.00102140,-0.00059735,-0.00670948,0.05125280,-0.1
 2273618,0.00368156,-0.13678052,0.01614638,-0.00059735,0.01270448,0.136
 20849,-0.00746507,0.14718957,-0.04869468,0.,0.,0.00078308,0.02283189,0
 .01548607,0.00078308,-0.02283189,-0.01548607,0.04712411,0.,-0.22140399
 ,-0.12473477,0.00048708,0.00155296,0.00121179,-0.00048708,0.00155296,0
 .00121179,0.,0.24170342,0.,-0.12570576,-0.13836608,-0.00140058,-0.0146
 2332,-0.01115732,0.00140058,-0.01462332,-0.01115732,0.,0.13528853,0.14
 763773,-0.08095492,0.,0.,0.00087983,-0.02432962,0.01592480,0.00087983,
 0.02432962,-0.01592480,-0.00151962,0.,0.,0.59316012,0.,-0.15579270,0.0
 5485091,-0.00008485,-0.00137172,0.00066038,0.00008485,-0.00137172,0.00
 066038,0.,-0.02070515,0.01716110,0.,0.45306778,0.,0.05249454,-0.118240
 93,-0.00073725,0.01675674,-0.01226535,0.00073725,0.01675674,-0.0122653
 5,0.,-0.01757748,0.01292266,0.,0.,0.53581188,0.00085675,0.00014252,0.0
 0100488,0.00086516,0.00037305,-0.00014505,0.00168988,-0.00007712,0.000
 60196,0.00006569,0.00061001,-0.00002937,-0.21586517,0.,-0.12017231,0.2
 3084564,0.02417287,-0.00153615,0.01781686,-0.00049866,0.00112643,-0.00
 065973,-0.00032199,-0.00483288,0.00374940,0.00017969,0.00093414,-0.000
 80972,0.,-0.04729262,0.,0.,0.05639167,-0.01536567,0.00108433,-0.011697
 45,0.00009106,-0.00075377,0.00018892,0.00030090,0.00351465,-0.00129423
 ,0.00034939,-0.00004444,0.00083841,-0.11930962,0.,-0.13805697,0.132932
 87,0.,0.14956064,0.00085675,-0.00014252,-0.00100488,0.00168988,0.00007
 712,-0.00060196,0.00086516,-0.00037305,0.00014506,0.00006569,-0.000610
 01,0.00002937,-0.21586517,0.,0.12017231,-0.02193543,0.,0.01562539,0.23
 084564,-0.02417287,-0.00153615,0.01781686,0.00032199,-0.00483288,0.003
 74940,0.00049866,0.00112643,-0.00065973,-0.00017969,0.00093414,-0.0008
 0972,0.,-0.04729262,0.,0.,-0.00048214,0.,0.,0.05639167,0.01536567,0.00
 108433,-0.01169745,-0.00030090,0.00351465,-0.00129423,-0.00009106,-0.0
 0075376,0.00018892,-0.00034939,-0.00004444,0.00083841,0.11930962,0.,-0
 .13805697,-0.01562539,0.,0.01242501,-0.13293287,0.,0.14956064,0.000455
 23,0.,0.,0.00014732,-0.00114386,-0.00052744,0.00014732,0.00114386,0.00
 052744,0.00037478,0.,0.,-0.08095492,0.,0.,0.00085675,-0.02417287,-0.01
 536567,0.00085675,0.02417287,0.01536567,0.56781899,0.,-0.03132434,-0.0
 1487039,0.00020431,0.00194549,-0.00115913,-0.00020431,0.00194549,-0.00
 115913,0.,-0.00359481,0.00274991,0.,-0.15579270,-0.05249455,-0.0001425
 2,-0.00153615,-0.00108433,0.00014252,-0.00153615,-0.00108433,0.,0.5084
 6533,0.,0.01487039,0.01316135,-0.00018257,0.00062005,0.00066740,0.0001
 8257,0.00062005,0.00066740,0.,0.00559692,-0.00224789,0.,-0.05485091,-0
 .11824093,0.00100488,-0.01781686,-0.01169745,-0.00100488,-0.01781686,-
 0.01169745,0.,-0.04924072,0.54131470,0.00014732,-0.00020431,-0.0001825
 7,0.00014466,0.00065500,-0.00016327,-0.00007604,-0.00001576,0.00006581
 ,0.00022307,0.00012967,-0.00025714,0.00087983,0.00008484,-0.00073725,0
 .00086516,0.00049866,0.00009106,0.00168988,-0.00032199,-0.00030090,-0.
 22050377,0.00614851,0.12294694,0.23668735,0.00114386,0.00194549,-0.000
 62005,-0.00065500,-0.00027784,0.00060363,-0.00001576,-0.00012554,0.000
 07326,-0.00036202,0.00033577,0.00013347,0.02432962,-0.00137171,-0.0167
 5674,-0.00037305,0.00112643,0.00075376,-0.00007712,-0.00483288,-0.0035
 1465,0.00577280,-0.04858409,-0.00335842,-0.00670948,0.05125280,-0.0005
 2744,0.00115913,0.00066740,-0.00016327,-0.00060363,0.00065500,-0.00006
 581,-0.00007326,0.00009499,-0.00028866,0.00009874,-0.00000295,0.015924
 80,-0.00066038,-0.01226535,-0.00014506,0.00065973,0.00018892,-0.000601
 96,-0.00374940,-0.00129423,0.12273618,-0.00368156,-0.13678052,-0.13620
 849,0.00746507,0.14718957,0.00037478,0.,0.,0.00022307,0.00036202,-0.00
 028866,0.00022307,-0.00036202,0.00028866,0.00057173,0.,0.,-0.00151962,
 0.,0.,0.00006569,-0.00017969,0.00034939,0.00006569,0.00017969,-0.00034
 939,-0.04869468,0.,0.,0.00078308,-0.02283189,0.01548607,0.04712411,0.,
 -0.00359481,-0.00559692,-0.00012967,0.00033577,-0.00009874,0.00012967,
 0.00033577,-0.00009874,0.,-0.00164523,0.00110537,0.,-0.02070515,0.0175
 7749,-0.00061001,0.00093414,0.00004444,0.00061001,0.00093414,0.0000444
 4,0.,-0.22140399,0.12473477,-0.00048708,0.00155296,-0.00121179,0.,0.24
 170342,0.,-0.00274991,-0.00224789,-0.00025713,-0.00013347,-0.00000295,
 0.00025714,-0.00013347,-0.00000295,0.,-0.00110537,0.00069730,0.,-0.017
 16110,0.01292265,-0.00002937,0.00080972,0.00083841,0.00002937,0.000809
 72,0.00083841,0.,0.12570576,-0.13836608,-0.00140058,0.01462332,-0.0111
 5732,0.,-0.13528853,0.14763773,0.00014732,0.00020431,0.00018257,-0.000
 07604,0.00001576,-0.00006581,0.00014466,-0.00065500,0.00016327,0.00022
 307,-0.00012967,0.00025713,0.00087983,-0.00008485,0.00073725,0.0016898
 8,0.00032199,0.00030090,0.00086516,-0.00049866,-0.00009106,-0.22050377
 ,-0.00614851,-0.12294694,-0.02084053,-0.00022195,-0.01614638,0.0007830
 8,0.00048708,0.00140058,0.23668735,-0.00114386,0.00194549,-0.00062005,
 0.00001576,-0.00012554,0.00007326,0.00065500,-0.00027784,0.00060363,0.
 00036202,0.00033577,0.00013347,-0.02432962,-0.00137172,-0.01675674,0.0
 0007712,-0.00483288,-0.00351465,0.00037305,0.00112643,0.00075377,-0.00
 577280,-0.04858409,-0.00335842,0.00022195,-0.00102140,0.00059735,0.022
 83189,0.00155296,0.01462332,0.00670948,0.05125280,0.00052744,0.0011591
 3,0.00066740,0.00006581,-0.00007326,0.00009499,0.00016327,-0.00060363,
 0.00065500,0.00028866,0.00009874,-0.00000295,-0.01592480,-0.00066038,-
 0.01226535,0.00060196,-0.00374940,-0.00129423,0.00014505,0.00065973,0.
 00018892,-0.12273618,-0.00368156,-0.13678052,0.01614638,0.00059735,0.0
 1270448,-0.01548607,-0.00121179,-0.01115732,0.13620849,0.00746507,0.14
 718957\\0.,-0.00003870,0.00006494,0.00005958,-0.00001156,-0.00003057,-
 0.00005958,-0.00001156,-0.00003057,0.,0.00012491,0.00002986,0.,0.,-0.0
 0015164,0.00003844,0.,0.00004216,-0.00003844,0.,0.00004216,0.,0.000038
 70,0.00006494,0.00005958,0.00001156,-0.00003057,0.,-0.00012491,0.00002
 986,-0.00005958,0.00001156,-0.00003057\\\@


 ASKING FOR EFFICIENCY AND ADAPTABILITY IN THE SAME PROGRAM IS LIKE
 ASKING FOR A BEAUTIFUL AND MODEST WIFE ...
 WE'LL PROBABLY HAVE TO SETTLE FOR ONE OR THE OTHER.

             -- THE PSYCHOLOGY OF COMPUTER PROGRAMMING
                GERALD M. WEINBERG
 Job cpu time:       0 days  0 hours  1 minutes 32.5 seconds.
 Elapsed time:       0 days  0 hours  0 minutes  7.3 seconds.
 File lengths (MBytes):  RWF=     10 Int=      0 D2E=      0 Chk=      8 Scr=      1
 Normal termination of Gaussian 16 at Sat Aug 10 16:33:12 2019.
