 Entering Gaussian System, Link 0=/software/sse/easybuild/prefix/software/Gaussian/16.B.01-avx2-nsc1-bdist/g16/g16.orig
 Input=freq-lm.wrap
 Output=freq-lm.log
 Initial command:
 /software/sse/easybuild/prefix/software/Gaussian/16.B.01-avx2-nsc1-bdist/g16/l1.exe "/scratch/local/Gau-7278.inp" -scrdir="/scratch/local/"
 Default is to use a total of  16 processors:
                               16 via shared-memory
                                1 via Linda
 Entering Link 1 = /software/sse/easybuild/prefix/software/Gaussian/16.B.01-avx2-nsc1-bdist/g16/l1.exe PID=      7288.
  
 Copyright (c) 1988-2017, Gaussian, Inc.  All Rights Reserved.
  
 This is part of the Gaussian(R) 16 program.  It is based on
 the Gaussian(R) 09 system (copyright 2009, Gaussian, Inc.),
 the Gaussian(R) 03 system (copyright 2003, Gaussian, Inc.),
 the Gaussian(R) 98 system (copyright 1998, Gaussian, Inc.),
 the Gaussian(R) 94 system (copyright 1995, Gaussian, Inc.),
 the Gaussian 92(TM) system (copyright 1992, Gaussian, Inc.),
 the Gaussian 90(TM) system (copyright 1990, Gaussian, Inc.),
 the Gaussian 88(TM) system (copyright 1988, Gaussian, Inc.),
 the Gaussian 86(TM) system (copyright 1986, Carnegie Mellon
 University), and the Gaussian 82(TM) system (copyright 1983,
 Carnegie Mellon University). Gaussian is a federally registered
 trademark of Gaussian, Inc.
  
 This software contains proprietary and confidential information,
 including trade secrets, belonging to Gaussian, Inc.
  
 This software is provided under written license and may be
 used, copied, transmitted, or stored only in accord with that
 written license.
  
 The following legend is applicable only to US Government
 contracts under FAR:
  
                    RESTRICTED RIGHTS LEGEND
  
 Use, reproduction and disclosure by the US Government is
 subject to restrictions as set forth in subparagraphs (a)
 and (c) of the Commercial Computer Software - Restricted
 Rights clause in FAR 52.227-19.
  
 Gaussian, Inc.
 340 Quinnipiac St., Bldg. 40, Wallingford CT 06492
  
  
 ---------------------------------------------------------------
 Warning -- This program may not be used in any manner that
 competes with the business of Gaussian, Inc. or will provide
 assistance to any competitor of Gaussian, Inc.  The licensee
 of this program is prohibited from giving any competitor of
 Gaussian, Inc. access to this program.  By using this program,
 the user acknowledges that Gaussian, Inc. is engaged in the
 business of creating and licensing software in the field of
 computational chemistry and represents and warrants to the
 licensee that it is not a competitor of Gaussian, Inc. and that
 it will not use this program in any manner prohibited above.
 ---------------------------------------------------------------
  

 Cite this work as:
 Gaussian 16, Revision B.01,
 M. J. Frisch, G. W. Trucks, H. B. Schlegel, G. E. Scuseria, 
 M. A. Robb, J. R. Cheeseman, G. Scalmani, V. Barone, 
 G. A. Petersson, H. Nakatsuji, X. Li, M. Caricato, A. V. Marenich, 
 J. Bloino, B. G. Janesko, R. Gomperts, B. Mennucci, H. P. Hratchian, 
 J. V. Ortiz, A. F. Izmaylov, J. L. Sonnenberg, D. Williams-Young, 
 F. Ding, F. Lipparini, F. Egidi, J. Goings, B. Peng, A. Petrone, 
 T. Henderson, D. Ranasinghe, V. G. Zakrzewski, J. Gao, N. Rega, 
 G. Zheng, W. Liang, M. Hada, M. Ehara, K. Toyota, R. Fukuda, 
 J. Hasegawa, M. Ishida, T. Nakajima, Y. Honda, O. Kitao, H. Nakai, 
 T. Vreven, K. Throssell, J. A. Montgomery, Jr., J. E. Peralta, 
 F. Ogliaro, M. J. Bearpark, J. J. Heyd, E. N. Brothers, K. N. Kudin, 
 V. N. Staroverov, T. A. Keith, R. Kobayashi, J. Normand, 
 K. Raghavachari, A. P. Rendell, J. C. Burant, S. S. Iyengar, 
 J. Tomasi, M. Cossi, J. M. Millam, M. Klene, C. Adamo, R. Cammi, 
 J. W. Ochterski, R. L. Martin, K. Morokuma, O. Farkas, 
 J. B. Foresman, and D. J. Fox, Gaussian, Inc., Wallingford CT, 2016.
 
 ******************************************
 Gaussian 16:  ES64L-G16RevB.01 20-Dec-2017
                10-Aug-2019 
 ******************************************
 %chk=freq.chk
 ----------------------------------------------------------------------
 # freq(intmodes) iop(1/33=3) b3lyp/6-31g(d,p) geom=connectivity iop(7/
 75=-1)
 ----------------------------------------------------------------------
 1/10=4,18=20,30=1,33=3,38=1,57=2/1,3;
 2/9=110,12=2,17=6,18=5,40=1/2;
 3/5=1,6=6,7=101,11=2,25=1,30=1,71=2,74=-5,140=1/1,2,3;
 4//1;
 5/5=2,38=5,98=1/2;
 8/6=4,10=90,11=11/1;
 11/6=1,8=1,9=11,15=111,16=1/1,2,10;
 10/6=1/2;
 6/7=2,8=2,9=2,10=2,28=1/1;
 7/8=21,10=1,25=1,75=-1/1,2,3,16;
 1/10=4,18=20,30=1,33=3/3;
 99//99;
 ONIOM results not found on unit 2.
 ----
 name
 ----
 TstMul:  ICh=     0
 TstMul:  Mul=     1
 TstMul:  ICh=     0
 TstMul:  Mul=     1
 Symbolic Z-matrix:
 Charge =  0 Multiplicity = 1
 C                    -0.52899  0.         0.00001 
 O                     0.67771  -0.00001  0. 
 H                    -1.12374   0.9378   -0.00001 
 H                    -1.12398  -0.93766  -0.00001 
 
 RdStrC is calling ZToCFu for IStruc=1 NZ=     4.
                                ZToCFu                                
 ---------------------------------------------------------------------
 Center     Atomic      Atomic             Coordinates (Angstroms)
 Number     Number       Type             X           Y           Z
 ---------------------------------------------------------------------
      1          6           0       -0.528987   -0.000004    0.000007
      2          8           0        0.677705   -0.000014   -0.000002
      3          1           0       -1.123743    0.937800   -0.000014
      4          1           0       -1.123976   -0.937661   -0.000014
 ---------------------------------------------------------------------
 Connectivity in DoCon:
 I=     1 IAn=  6 IBond, RBType=     2  2.00     3  1.00     4  1.00
 I=     2 IAn=  8 IBond, RBType=     1  2.00
 I=     3 IAn=  1 IBond, RBType=     1  1.00
 I=     4 IAn=  1 IBond, RBType=     1  1.00
 After GenITR:
 ITRead=  0  0  0  0
 MicOpt= -1 -1 -1 -1
 List IsCon N=      4 M=      2:
 I=      1 Vals=      2      2 |      3      1 |      4      1 |
 I=      2 Vals=      1      2 |
 I=      3 Vals=      1      1 |
 I=      4 Vals=      1      1 |
 Coordinate R1 contains atom 1 which is already in QM block.
 Coordinate R1 contains atom 2 which is already in QM block.
 Coordinate R2 contains atom 1 which is already in QM block.
 Coordinate R2 contains atom 3 which is already in QM block.
 Coordinate R3 contains atom 1 which is already in QM block.
 Coordinate R3 contains atom 4 which is already in QM block.
 Coordinate A1 contains atom 2 which is already in QM block.
 Coordinate A1 contains atom 1 which is already in QM block.
 Coordinate A1 contains atom 1 which is already in QM block.
 Coordinate A2 contains atom 2 which is already in QM block.
 Coordinate A2 contains atom 1 which is already in QM block.
 Coordinate A2 contains atom 1 which is already in QM block.
 Coordinate A3 contains atom 3 which is already in QM block.
 Coordinate A3 contains atom 1 which is already in QM block.
 Coordinate A3 contains atom 1 which is already in QM block.
 Coordinate D1 contains atom 2 which is already in QM block.
 Coordinate D1 contains atom 1 which is already in QM block.
 Coordinate D1 contains atom 4 which is already in QM block.
 Coordinate D1 contains atom 3 which is already in QM block.
 Saved connectivity
 I=     1 IAn=  6 IBond, RBType=     2  2.00     3  1.00     4  1.00
 I=     2 IAn=  8 IBond, RBType=     1  2.00
 I=     3 IAn=  1 IBond, RBType=     1  1.00
 I=     4 IAn=  1 IBond, RBType=     1  1.00
 ITRead=  0  0  0  0
 MicOpt= -1 -1 -1 -1
 NAtoms=      4 NQM=        4 NQMF=       0 NMMI=      0 NMMIF=      0
                NMic=       0 NMicF=      0.
 No MM parameters found.
 Leave Link  101 at Sat Aug 10 16:32:25 2019, MaxMem=  4294967296 cpu:               5.6 elap:               0.5

 GradGradGradGradGradGradGradGradGradGradGradGradGradGradGradGradGradGrad
 Berny optimization.
 GetPCM: File not found, return IValue=0.
 Optmz: redundant internal coordinate code flag= 1
 Initialization pass.
                           ----------------------------
                           !    Initial Parameters    !
                           ! (Angstroms and Degrees)  !
 --------------------------                            --------------------------
 ! Name  Definition              Value          Derivative Info.                !
 --------------------------------------------------------------------------------
 ! R1    R(1,2)                  1.2067         calculate D2E/DX2 analytically  !
 ! R2    R(1,3)                  1.1105         calculate D2E/DX2 analytically  !
 ! R3    R(1,4)                  1.1105         calculate D2E/DX2 analytically  !
 ! A1    A(2,1,3)              122.3834         calculate D2E/DX2 analytically  !
 ! A2    A(2,1,4)              122.3966         calculate D2E/DX2 analytically  !
 ! A3    A(3,1,4)              115.22           calculate D2E/DX2 analytically  !
 ! D1    D(2,1,4,3)           -179.9971         calculate D2E/DX2 analytically  !
 --------------------------------------------------------------------------------
 Maximum allowed force set to 1.00D+20.
 Trust Radius=3.00D-01 FncErr=1.00D-07 GrdErr=1.00D-07 EigMax=2.50D+02 EigMin=1.00D-04
 Number of steps in this run=      2 maximum allowed number of steps=      2.
 GradGradGradGradGradGradGradGradGradGradGradGradGradGradGradGradGradGrad

 Leave Link  103 at Sat Aug 10 16:32:25 2019, MaxMem=  4294967296 cpu:               0.2 elap:               0.2
                          Input orientation:                          
 ---------------------------------------------------------------------
 Center     Atomic      Atomic             Coordinates (Angstroms)
 Number     Number       Type             X           Y           Z
 ---------------------------------------------------------------------
      1          6           0       -0.528987   -0.000004    0.000007
      2          8           0        0.677705   -0.000014   -0.000002
      3          1           0       -1.123743    0.937800   -0.000014
      4          1           0       -1.123976   -0.937661   -0.000014
 ---------------------------------------------------------------------
                    Distance matrix (angstroms):
                    1          2          3          4
     1  C    0.000000
     2  O    1.206692   0.000000
     3  H    1.110500   2.030938   0.000000
     4  H    1.110501   2.031068   1.875461   0.000000
 Stoichiometry    CH2O
 Framework group  C1[X(CH2O)]
 Deg. of freedom     6
 Full point group                 C1      NOp   1
 Largest Abelian subgroup         C1      NOp   1
 Largest concise Abelian subgroup C1      NOp   1
                         Standard orientation:                         
 ---------------------------------------------------------------------
 Center     Atomic      Atomic             Coordinates (Angstroms)
 Number     Number       Type             X           Y           Z
 ---------------------------------------------------------------------
      1          6           0        0.528987   -0.000004   -0.000007
      2          8           0       -0.677705   -0.000014    0.000002
      3          1           0        1.123743    0.937800    0.000014
      4          1           0        1.123976   -0.937661    0.000014
 ---------------------------------------------------------------------
 Rotational constants (GHZ):         285.1320089          38.6233313          34.0156491
 Standard basis: 6-31G(d,p) (6D, 7F)
 There are    40 symmetry adapted cartesian basis functions of A   symmetry.
 There are    40 symmetry adapted basis functions of A   symmetry.
    40 basis functions,    70 primitive gaussians,    40 cartesian basis functions
     8 alpha electrons        8 beta electrons
       nuclear repulsion energy        31.2189101921 Hartrees.
 NAtoms=    4 NActive=    4 NUniq=    4 SFac= 1.00D+00 NAtFMM=   60 NAOKFM=F Big=F
 Integral buffers will be    131072 words long.
 Raffenetti 2 integral format.
 Two-electron integral symmetry is turned on.
 One-electron integrals computed using PRISM.
 NBasis=    40 RedAO= T EigKep=  8.48D-03  NBF=    40
 NBsUse=    40 1.00D-06 EigRej= -1.00D+00 NBFU=    40
 ExpMin= 1.61D-01 ExpMax= 5.48D+03 ExpMxC= 8.25D+02 IAcc=3 IRadAn=         5 AccDes= 0.00D+00
 Harris functional with IExCor=  402 and IRadAn=       5 diagonalized for initial guess.
 HarFok:  IExCor=  402 AccDes= 0.00D+00 IRadAn=         5 IDoV= 1 UseB2=F ITyADJ=14
 ICtDFT=  3500011 ScaDFX=  1.000000  1.000000  1.000000  1.000000
 FoFCou: FMM=F IPFlag=           0 FMFlag=      100000 FMFlg1=           0
         NFxFlg=           0 DoJE=T BraDBF=F KetDBF=T FulRan=T
         wScrn=  0.000000 ICntrl=       500 IOpCl=  0 I1Cent=   200000004 NGrid=           0
         NMat0=    1 NMatS0=      1 NMatT0=    0 NMatD0=    1 NMtDS0=    0 NMtDT0=    0
 Petite list used in FoFCou.
 Keep R1 ints in memory in canonical form, NReq=14164940.
 Requested convergence on RMS density matrix=1.00D-08 within 128 cycles.
 Requested convergence on MAX density matrix=1.00D-06.
 Requested convergence on             energy=1.00D-06.
 No special actions if energy rises.
 Integral accuracy reduced to 1.0D-05 until final iterations.
 Initial convergence to 1.0D-05 achieved.  Increase integral accuracy.
 SCF Done:  E(RB3LYP) =  -114.503199354     A.U. after   11 cycles
            NFock= 11  Conv=0.67D-08     -V/T= 2.0090
 DoSCS=F DFT=T ScalE2(SS,OS)=  1.000000  1.000000
 Range of M.O.s used for correlation:     1    40
 NBasis=    40 NAE=     8 NBE=     8 NFC=     0 NFV=     0
 NROrb=     40 NOA=     8 NOB=     8 NVA=    32 NVB=    32
 Symmetrizing basis deriv contribution to polar:
 IMax=3 JMax=2 DiffMx= 0.00D+00
 G2DrvN: will do     5 centers at a time, making    1 passes.
 Calling FoFCou, ICntrl=  3107 FMM=F I1Cent=   0 AccDes= 0.00D+00.
 End of G2Drv F.D. properties file   721 does not exist.
 End of G2Drv F.D. properties file   722 does not exist.
 End of G2Drv F.D. properties file   788 does not exist.
          IDoAtm=1111
          Differentiating once with respect to electric field.
                with respect to dipole field.
          Differentiating once with respect to nuclear coordinates.
 Keep R1 ints in memory in canonical form, NReq=14112516.
          There are    15 degrees of freedom in the 1st order CPHF.  IDoFFX=6 NUNeed=     3.
     12 vectors produced by pass  0 Test12= 1.71D-15 6.67D-09 XBig12= 1.72D+01 3.16D+00.
 AX will form    12 AO Fock derivatives at one time.
     12 vectors produced by pass  1 Test12= 1.71D-15 6.67D-09 XBig12= 4.73D+00 8.09D-01.
     12 vectors produced by pass  2 Test12= 1.71D-15 6.67D-09 XBig12= 2.18D-02 5.21D-02.
     12 vectors produced by pass  3 Test12= 1.71D-15 6.67D-09 XBig12= 3.55D-05 1.71D-03.
     12 vectors produced by pass  4 Test12= 1.71D-15 6.67D-09 XBig12= 3.10D-08 5.85D-05.
      7 vectors produced by pass  5 Test12= 1.71D-15 6.67D-09 XBig12= 6.75D-11 3.33D-06.
      1 vectors produced by pass  6 Test12= 1.71D-15 6.67D-09 XBig12= 6.59D-14 9.10D-08.
 InvSVY:  IOpt=1 It=  1 EMax= 8.88D-16
 Solved reduced A of dimension    68 with    12 vectors.
 Isotropic polarizability for W=    0.000000       13.26 Bohr**3.
 End of Minotr F.D. properties file   721 does not exist.
 End of Minotr F.D. properties file   722 does not exist.
 End of Minotr F.D. properties file   788 does not exist.

 **********************************************************************

            Population analysis using the SCF Density.

 **********************************************************************

 Orbital symmetries:
       Occupied  (A) (A) (A) (A) (A) (A) (A) (A)
       Virtual   (A) (A) (A) (A) (A) (A) (A) (A) (A) (A) (A) (A)
                 (A) (A) (A) (A) (A) (A) (A) (A) (A) (A) (A) (A)
                 (A) (A) (A) (A) (A) (A) (A) (A)
 The electronic state is 1-A.
 Alpha  occ. eigenvalues --  -19.17002 -10.28950  -1.06088  -0.63679  -0.49433
 Alpha  occ. eigenvalues --   -0.44941  -0.39921  -0.26815
 Alpha virt. eigenvalues --   -0.04307   0.10136   0.18195   0.21798   0.50675
 Alpha virt. eigenvalues --    0.61961   0.62368   0.68744   0.80128   0.82922
 Alpha virt. eigenvalues --    0.87940   0.95784   1.05736   1.36815   1.37526
 Alpha virt. eigenvalues --    1.46696   1.66706   1.80079   1.81203   1.98024
 Alpha virt. eigenvalues --    2.01268   2.10159   2.23919   2.52105   2.61759
 Alpha virt. eigenvalues --    2.70327   2.81133   2.92265   3.24816   3.48589
 Alpha virt. eigenvalues --    3.71688   4.24659
          Condensed to atoms (all electrons):
               1          2          3          4
     1  C    4.578302   0.561996   0.341727   0.341702
     2  O    0.561996   7.885137  -0.053818  -0.053801
     3  H    0.341727  -0.053818   0.727510  -0.097032
     4  H    0.341702  -0.053801  -0.097032   0.727506
 Mulliken charges:
               1
     1  C    0.176274
     2  O   -0.339514
     3  H    0.081614
     4  H    0.081626
 Sum of Mulliken charges =  -0.00000
 Mulliken charges with hydrogens summed into heavy atoms:
               1
     1  C    0.339514
     2  O   -0.339514
 APT charges:
               1
     1  C    0.676723
     2  O   -0.532545
     3  H   -0.072095
     4  H   -0.072084
 Sum of APT charges =   0.00000
 APT charges with hydrogens summed into heavy atoms:
               1
     1  C    0.532545
     2  O   -0.532545
 Electronic spatial extent (au):  <R**2>=             60.3160
 Charge=             -0.0000 electrons
 Dipole moment (field-independent basis, Debye):
    X=              2.1827    Y=             -0.0000    Z=             -0.0000  Tot=              2.1827
 Quadrupole moment (field-independent basis, Debye-Ang):
   XX=            -11.9415   YY=            -11.4987   ZZ=            -11.3934
   XY=             -0.0002   XZ=              0.0000   YZ=              0.0000
 Traceless Quadrupole moment (field-independent basis, Debye-Ang):
   XX=             -0.3303   YY=              0.1125   ZZ=              0.2178
   XY=             -0.0002   XZ=              0.0000   YZ=              0.0000
 Octapole moment (field-independent basis, Debye-Ang**2):
  XXX=             -1.2793  YYY=              0.0001  ZZZ=              0.0000  XYY=             -0.0505
  XXY=             -0.0003  XXZ=              0.0000  XZZ=             -0.9206  YZZ=             -0.0000
  YYZ=              0.0000  XYZ=             -0.0000
 Hexadecapole moment (field-independent basis, Debye-Ang**3):
 XXXX=            -44.5702 YYYY=            -18.0688 ZZZZ=             -9.1634 XXXY=             -0.0006
 XXXZ=              0.0000 YYYX=             -0.0000 YYYZ=              0.0000 ZZZX=             -0.0000
 ZZZY=             -0.0000 XXYY=            -10.1678 XXZZ=             -8.9279 YYZZ=             -4.7608
 XXYZ=             -0.0000 YYXZ=              0.0000 ZZXY=             -0.0000
 N-N= 3.121891019209D+01 E-N=-3.308467182781D+02  KE= 1.134844497217D+02
  Exact polarizability:  18.518  -0.000  14.275   0.000   0.000   6.975
 Approx polarizability:  31.308  -0.001  17.065  -0.000   0.000   9.361
 Calling FoFJK, ICntrl=    100127 FMM=F ISym2X=0 I1Cent= 0 IOpClX= 0 NMat=1 NMatS=1 NMatT=0.
 Full mass-weighted force constant matrix:
 Low frequencies ---    0.0008    0.0012    0.0018    9.9279   13.2325   24.7368
 Low frequencies --- 1200.5237 1274.5036 1554.6700
 Diagonal vibrational polarizability:
        1.0140241       0.7010785       0.0292624
 Harmonic frequencies (cm**-1), IR intensities (KM/Mole), Raman scattering
 activities (A**4/AMU), depolarization ratios for plane and unpolarized
 incident light, reduced masses (AMU), force constants (mDyne/A),
 and normal coordinates:
                      1                      2                      3
                      A                      A                      A
 Frequencies --   1200.5237              1274.5036              1554.6700
 Red. masses --      1.3703                 1.3435                 1.1216
 Frc consts  --      1.1636                 1.2857                 1.5973
 IR Inten    --      1.5672                12.6661                 6.8892
  Atom  AN      X      Y      Z        X      Y      Z        X      Y      Z
     1   6     0.00   0.00  -0.17     0.00  -0.15  -0.00     0.01   0.00  -0.00
     2   8     0.00  -0.00   0.04    -0.00   0.08   0.00    -0.09  -0.00  -0.00
     3   1    -0.00  -0.00   0.70    -0.65   0.25   0.00     0.61  -0.35   0.00
     4   1    -0.00   0.00   0.70     0.65   0.25  -0.00     0.61   0.35   0.00
                      4                      5                      6
                      A                      A                      A
 Frequencies --   1846.1368              2897.8032              2954.5597
 Red. masses --      6.7232                 1.0452                 1.1210
 Frc consts  --     13.5005                 5.1713                 5.7653
 IR Inten    --     96.5739                54.5359               159.3467
  Atom  AN      X      Y      Z        X      Y      Z        X      Y      Z
     1   6     0.56   0.00  -0.00    -0.06  -0.00  -0.00     0.00  -0.10   0.00
     2   8    -0.39  -0.00   0.00    -0.00  -0.00  -0.00    -0.00   0.00   0.00
     3   1    -0.24   0.46  -0.00     0.36   0.61   0.00     0.37   0.60   0.00
     4   1    -0.24  -0.46  -0.00     0.36  -0.61   0.00    -0.37   0.60  -0.00

 -------------------
 - Thermochemistry -
 -------------------
 Temperature   298.150 Kelvin.  Pressure   1.00000 Atm.
 Atom     1 has atomic number  6 and mass  12.00000
 Atom     2 has atomic number  8 and mass  15.99491
 Atom     3 has atomic number  1 and mass   1.00783
 Atom     4 has atomic number  1 and mass   1.00783
 Molecular mass:    30.01056 amu.
 Principal axes and moments of inertia in atomic units:
                           1         2         3
     Eigenvalues --     6.32949  46.72671  53.05620
           X            1.00000  -0.00000   0.00000
           Y            0.00000   1.00000  -0.00000
           Z           -0.00000   0.00000   1.00000
 This molecule is an asymmetric top.
 Rotational symmetry number  1.
 Rotational temperatures (Kelvin)     13.68418     1.85363     1.63249
 Rotational constants (GHZ):         285.13201    38.62333    34.01565
 Zero-point vibrational energy      70150.2 (Joules/Mol)
                                   16.76630 (Kcal/Mol)
 Vibrational temperatures:   1727.29  1833.73  2236.82  2656.18  4169.29
          (Kelvin)           4250.95
 
 Zero-point correction=                           0.026719 (Hartree/Particle)
 Thermal correction to Energy=                    0.029586
 Thermal correction to Enthalpy=                  0.030530
 Thermal correction to Gibbs Free Energy=         0.005055
 Sum of electronic and zero-point Energies=           -114.476481
 Sum of electronic and thermal Energies=              -114.473614
 Sum of electronic and thermal Enthalpies=            -114.472670
 Sum of electronic and thermal Free Energies=         -114.498144
 
                     E (Thermal)             CV                S
                      KCal/Mol        Cal/Mol-Kelvin    Cal/Mol-Kelvin
 Total                   18.565              6.411             53.616
 Electronic               0.000              0.000              0.000
 Translational            0.889              2.981             36.130
 Rotational               0.889              2.981             17.402
 Vibrational             16.788              0.449              0.084
                       Q            Log10(Q)             Ln(Q)
 Total Bot       0.472949D-02         -2.325186         -5.353938
 Total V=0       0.921718D+10          9.964598         22.944334
 Vib (Bot)       0.516141D-12        -12.287231        -28.292396
 Vib (V=0)       0.100589D+01          0.002552          0.005876
 Electronic      0.100000D+01          0.000000          0.000000
 Translational   0.646197D+07          6.810365         15.681445
 Rotational      0.141801D+04          3.151681          7.257013
                           ----------------------------
                           ! Normal Mode     1        !
 --------------------------                            --------------------------
 ! Name  Definition              Value          Relative Weight (%)             !
 --------------------------------------------------------------------------------
 ! R1    R(1,2)                  0.0                     0.0                    !
 ! R2    R(1,3)                  0.0                     0.0                    !
 ! R3    R(1,4)                  0.0                     0.0                    !
 ! A1    A(2,1,3)                0.0                     0.0                    !
 ! A2    A(2,1,4)                0.0                     0.0                    !
 ! A3    A(3,1,4)                0.0                     0.0                    !
 ! D1    D(2,1,4,3)              1.0297                 100.0                   !
 --------------------------------------------------------------------------------
                           ----------------------------
                           ! Normal Mode     2        !
 --------------------------                            --------------------------
 ! Name  Definition              Value          Relative Weight (%)             !
 --------------------------------------------------------------------------------
 ! R1    R(1,2)                  0.0                     0.0                    !
 ! R2    R(1,3)                 -0.0094                  1.0                    !
 ! R3    R(1,4)                  0.0095                  1.0                    !
 ! A1    A(2,1,3)               -0.4634                 49.0                    !
 ! A2    A(2,1,4)                0.4636                 49.0                    !
 ! A3    A(3,1,4)               -0.0001                  0.0                    !
 ! D1    D(2,1,4,3)              0.0                     0.0                    !
 --------------------------------------------------------------------------------
                           ----------------------------
                           ! Normal Mode     3        !
 --------------------------                            --------------------------
 ! Name  Definition              Value          Relative Weight (%)             !
 --------------------------------------------------------------------------------
 ! R1    R(1,2)                  0.0991                  6.8                    !
 ! R2    R(1,3)                  0.0239                  1.6                    !
 ! R3    R(1,4)                  0.024                   1.6                    !
 ! A1    A(2,1,3)                0.3303                 22.5                    !
 ! A2    A(2,1,4)                0.3302                 22.5                    !
 ! A3    A(3,1,4)               -0.6605                 45.0                    !
 ! D1    D(2,1,4,3)              0.0                     0.0                    !
 --------------------------------------------------------------------------------
                           ----------------------------
                           ! Normal Mode     4        !
 --------------------------                            --------------------------
 ! Name  Definition              Value          Relative Weight (%)             !
 --------------------------------------------------------------------------------
 ! R1    R(1,2)                  0.949                  33.9                    !
 ! R2    R(1,3)                 -0.0458                  1.6                    !
 ! R3    R(1,4)                 -0.0458                  1.6                    !
 ! A1    A(2,1,3)               -0.4399                 15.7                    !
 ! A2    A(2,1,4)               -0.44                   15.7                    !
 ! A3    A(3,1,4)                0.8799                 31.4                    !
 ! D1    D(2,1,4,3)              0.0                     0.0                    !
 --------------------------------------------------------------------------------
                           ----------------------------
                           ! Normal Mode     5        !
 --------------------------                            --------------------------
 ! Name  Definition              Value          Relative Weight (%)             !
 --------------------------------------------------------------------------------
 ! R1    R(1,2)                 -0.0572                  3.6                    !
 ! R2    R(1,3)                  0.7367                 46.8                    !
 ! R3    R(1,4)                  0.7366                 46.8                    !
 ! A1    A(2,1,3)                0.0112                  0.7                    !
 ! A2    A(2,1,4)                0.0112                  0.7                    !
 ! A3    A(3,1,4)               -0.0225                  1.4                    !
 ! D1    D(2,1,4,3)              0.0                     0.0                    !
 --------------------------------------------------------------------------------
                           ----------------------------
                           ! Normal Mode     6        !
 --------------------------                            --------------------------
 ! Name  Definition              Value          Relative Weight (%)             !
 --------------------------------------------------------------------------------
 ! R1    R(1,2)                  0.0                     0.0                    !
 ! R2    R(1,3)                  0.789                  45.7                    !
 ! R3    R(1,4)                 -0.7891                 45.7                    !
 ! A1    A(2,1,3)               -0.074                   4.3                    !
 ! A2    A(2,1,4)                0.074                   4.3                    !
 ! A3    A(3,1,4)                0.0                     0.0                    !
 ! D1    D(2,1,4,3)              0.0                     0.0                    !
 --------------------------------------------------------------------------------
 Max01P=      6 Av01P=    4.00 Stan. Dev.=    1.90
 Max05P=      4 Av05P=    2.50 Stan. Dev.=    1.22
 Max10P=      4 Av10P=    2.33 Stan. Dev.=    1.03
 MaxNDP=      7 AvNDP=    7.00 Stan. Dev.=    0.00
 ***** Axes restored to original set *****
 -------------------------------------------------------------------
 Center     Atomic                   Forces (Hartrees/Bohr)
 Number     Number              X              Y              Z
 -------------------------------------------------------------------
      1        6           0.000040940    0.000028129   -0.000005615
      2        8          -0.000065045   -0.000019452    0.000001854
      3        1           0.000002282   -0.000037518    0.000001881
      4        1           0.000021823    0.000028842    0.000001881
 -------------------------------------------------------------------
 Cartesian Forces:  Max     0.000065045 RMS     0.000028635
 FormGI is forming the generalized inverse of G from B-inverse, IUseBI=4.

 GradGradGradGradGradGradGradGradGradGradGradGradGradGradGradGradGradGrad
 Berny optimization.
 GetPCM: File not found, return IValue=0.
 Optmz: redundant internal coordinate code flag= 1
 IB Matrix in FormBX:
              1            2            3            4            5
     1            1            1            1            2            2
     2            2            3            4            1            1
     3            0            0            0            3            4
     4            0            0            0            0            0
              6            7
     1            3            2
     2            1            1
     3            4            4
     4            0            3
 B Matrix in FormBX:
                 1             2             3             4             5 
      1  -0.100000D+01  0.535575D+00  0.535784D+00 -0.363411D-05  0.363428D-05
      2   0.828712D-05 -0.844488D+00  0.844355D+00 -0.438535D+00  0.438535D+00
      3   0.745841D-05  0.189104D-04  0.189104D-04  0.118944D-04  0.118969D-04
      4   0.100000D+01 -0.535575D+00 -0.535784D+00  0.402420D+00  0.402349D+00
      5  -0.828712D-05  0.844488D+00 -0.844355D+00  0.693748D+00 -0.693848D+00
      6  -0.745841D-05 -0.189104D-04 -0.189104D-04 -0.218180D-04 -0.218241D-04
      7   0.000000D+00  0.000000D+00  0.000000D+00 -0.402417D+00 -0.402353D+00
      8   0.000000D+00  0.000000D+00  0.000000D+00 -0.255213D+00  0.255313D+00
      9   0.000000D+00  0.000000D+00  0.000000D+00  0.992362D-05  0.992715D-05
     10   0.000000D+00  0.000000D+00  0.000000D+00  0.000000D+00  0.000000D+00
     11   0.000000D+00  0.000000D+00  0.000000D+00  0.000000D+00  0.000000D+00
     12   0.000000D+00  0.000000D+00  0.000000D+00  0.000000D+00  0.000000D+00
                 6             7 
      1   0.402417D+00 -0.387356D-05
      2   0.255213D+00  0.140899D-04
      3   0.142049D-04 -0.519371D+00
      4  -0.804769D+00 -0.203888D-04
      5   0.996673D-04 -0.222896D-04
      6  -0.284097D-04  0.157291D+01
      7   0.402353D+00  0.566787D-05
      8  -0.255313D+00  0.820197D-05
      9   0.142049D-04 -0.526807D+00
     10   0.000000D+00  0.185945D-04
     11   0.000000D+00  0.000000D+00
     12   0.000000D+00 -0.526730D+00
 IB Matrix in Red2BG:
              1            2            3            4            5
     1            1            1            1            2            2
     2            2            3            4            1            1
     3            0            0            0            3            4
     4            0            0            0            0            0
              6            7
     1            3            2
     2            1            1
     3            4            4
     4            0            3
 B Matrix in Red2BG:
                 1             2             3             4             5 
      1  -0.100000D+01  0.535575D+00  0.535784D+00 -0.363411D-05  0.363428D-05
      2   0.828712D-05 -0.844488D+00  0.844355D+00 -0.438535D+00  0.438535D+00
      3   0.745841D-05  0.189104D-04  0.189104D-04  0.118944D-04  0.118969D-04
      4   0.100000D+01 -0.535575D+00 -0.535784D+00  0.402420D+00  0.402349D+00
      5  -0.828712D-05  0.844488D+00 -0.844355D+00  0.693748D+00 -0.693848D+00
      6  -0.745841D-05 -0.189104D-04 -0.189104D-04 -0.218180D-04 -0.218241D-04
      7   0.000000D+00  0.000000D+00  0.000000D+00 -0.402417D+00 -0.402353D+00
      8   0.000000D+00  0.000000D+00  0.000000D+00 -0.255213D+00  0.255313D+00
      9   0.000000D+00  0.000000D+00  0.000000D+00  0.992362D-05  0.992715D-05
     10   0.000000D+00  0.000000D+00  0.000000D+00  0.000000D+00  0.000000D+00
     11   0.000000D+00  0.000000D+00  0.000000D+00  0.000000D+00  0.000000D+00
     12   0.000000D+00  0.000000D+00  0.000000D+00  0.000000D+00  0.000000D+00
                 6             7 
      1   0.402417D+00 -0.387356D-05
      2   0.255213D+00  0.140899D-04
      3   0.142049D-04 -0.519371D+00
      4  -0.804769D+00 -0.203888D-04
      5   0.996673D-04 -0.222896D-04
      6  -0.284097D-04  0.157291D+01
      7   0.402353D+00  0.566787D-05
      8  -0.255313D+00  0.820197D-05
      9   0.142049D-04 -0.526807D+00
     10   0.000000D+00  0.185945D-04
     11   0.000000D+00  0.000000D+00
     12   0.000000D+00 -0.526730D+00
 G Matrix: 
                 1             2             3             4             5 
      1   0.200000D+01 -0.535582D+00 -0.535777D+00 -0.402414D+00 -0.402355D+00
      2  -0.535582D+00  0.200000D+01 -0.426095D+00 -0.370336D+00  0.801434D+00
      3  -0.535777D+00 -0.426095D+00  0.200000D+01  0.801380D+00 -0.370281D+00
      4  -0.402414D+00 -0.370336D+00  0.801380D+00  0.106261D+01 -0.511756D+00
      5  -0.402355D+00  0.801434D+00 -0.370281D+00 -0.511756D+00  0.106270D+01
      6   0.804769D+00 -0.431098D+00 -0.431099D+00 -0.550859D+00 -0.550940D+00
      7   0.321200D-04  0.376479D-04  0.000000D+00 -0.830517D-04 -0.324812D-04
                 6             7 
      1   0.804769D+00  0.321200D-04
      2  -0.431098D+00  0.376479D-04
      3  -0.431099D+00  0.000000D+00
      4  -0.550859D+00 -0.830517D-04
      5  -0.550940D+00 -0.324812D-04
      6   0.110180D+01 -0.355766D-04
      7  -0.355766D-04  0.329876D+01
 Red2BG:  D1=  7.54D-01 OD1=  9.44D-16 B2RMS=  0.00D+00 IAprox=1
 Red2BG is reusing G-inverse.
 G-Inverse: 
                1             2             3             4             5 
      1  0.750000D+00
      2  0.133895D+00  0.749997D+00
      3  0.133944D+00  0.106527D+00  0.749997D+00
      4  0.147683D+00  0.160350D+00 -0.318536D+00  0.653236D+00
      5  0.147659D+00 -0.318559D+00  0.160328D+00 -0.338346D+00  0.653187D+00
      6 -0.295342D+00  0.158209D+00  0.158209D+00 -0.314890D+00 -0.314841D+00
      7 -0.684399D-05 -0.725662D-05 -0.725474D-05  0.182190D-05 -0.791328D-05
                6             7 
      6  0.629732D+00
      7 -0.779508D-05  0.303145D+00
 Internal  Forces:  Max     0.000065045 RMS     0.000033336
 Search for a local minimum.
 Step number   1 out of a maximum of    2
 All quantities printed in internal units (Hartrees-Bohrs-Radians)
 Second derivative matrix not updated -- analytic derivatives used.
 The second derivative matrix:
                          R1        R2        R3        A1        A2
           R1           0.89957
           R2           0.03803   0.30397
           R3           0.03802   0.00606   0.30397
           A1           0.01793   0.00173  -0.01017   0.11788
           A2           0.01790  -0.01017   0.00173  -0.07367   0.11787
           A3          -0.03583   0.00844   0.00844  -0.04421  -0.04420
           D1          -0.00000  -0.00000  -0.00000   0.00000  -0.00000
                          A3        D1
           A3           0.08841
           D1          -0.00000   0.07047
 ITU=  0
 IAlgDg is returning  0.
 DiagDN:  BShift=  1.00D+00
 Eigenvectors of the second derivative matrix:
                           1         2         3         4         5
     Eigenvalues --     0.07047   0.12836   0.19023   0.29923   0.30709
   1         R1         0.00000   0.06340  -0.00005   0.00002   0.08228
   2         R2         0.00000  -0.06980  -0.07769  -0.70286  -0.70085
   3         R3        -0.00000  -0.06977   0.07771   0.70279  -0.70091
   4         A1        -0.00005  -0.40529   0.70290  -0.07770   0.04236
   5         A2        -0.00001  -0.40557  -0.70275   0.07770   0.04236
   6         A3         0.00001   0.81086  -0.00015  -0.00000  -0.08471
   7         D1         1.00000  -0.00003   0.00003  -0.00000   0.00000
                           6
     Eigenvalues --     0.90676
   1         R1        -0.99459
   2         R2        -0.06243
   3         R3        -0.06242
   4         A1        -0.02236
   5         A2        -0.02231
   6         A3         0.04468
   7         D1         0.00000
 Forces in eigenvector basis: 
                 1 
      1  -0.357033D-05
      2  -0.122326D-04
      3   0.309381D-04
      4  -0.565188D-05
      5   0.443251D-04
      6   0.682840D-04
 Angle between quadratic step and forces=  36.69 degrees.
 Linear search not attempted -- first point.
 IB Matrix in FormBX:
              1            2            3            4            5
     1            1            1            1            2            2
     2            2            3            4            1            1
     3            0            0            0            3            4
     4            0            0            0            0            0
              6            7
     1            3            2
     2            1            1
     3            4            4
     4            0            3
 B Matrix in FormBX:
                 1             2             3             4             5 
      1  -0.100000D+01  0.535575D+00  0.535784D+00 -0.363411D-05  0.363428D-05
      2   0.828712D-05 -0.844488D+00  0.844355D+00 -0.438535D+00  0.438535D+00
      3   0.745841D-05  0.189104D-04  0.189104D-04  0.118944D-04  0.118969D-04
      4   0.100000D+01 -0.535575D+00 -0.535784D+00  0.402420D+00  0.402349D+00
      5  -0.828712D-05  0.844488D+00 -0.844355D+00  0.693748D+00 -0.693848D+00
      6  -0.745841D-05 -0.189104D-04 -0.189104D-04 -0.218180D-04 -0.218241D-04
      7   0.000000D+00  0.000000D+00  0.000000D+00 -0.402417D+00 -0.402353D+00
      8   0.000000D+00  0.000000D+00  0.000000D+00 -0.255213D+00  0.255313D+00
      9   0.000000D+00  0.000000D+00  0.000000D+00  0.992362D-05  0.992715D-05
     10   0.000000D+00  0.000000D+00  0.000000D+00  0.000000D+00  0.000000D+00
     11   0.000000D+00  0.000000D+00  0.000000D+00  0.000000D+00  0.000000D+00
     12   0.000000D+00  0.000000D+00  0.000000D+00  0.000000D+00  0.000000D+00
                 6             7 
      1   0.402417D+00 -0.387356D-05
      2   0.255213D+00  0.140899D-04
      3   0.142049D-04 -0.519371D+00
      4  -0.804769D+00 -0.203888D-04
      5   0.996673D-04 -0.222896D-04
      6  -0.284097D-04  0.157291D+01
      7   0.402353D+00  0.566787D-05
      8  -0.255313D+00  0.820197D-05
      9   0.142049D-04 -0.526807D+00
     10   0.000000D+00  0.185945D-04
     11   0.000000D+00  0.000000D+00
     12   0.000000D+00 -0.526730D+00
 Iteration  1 RMS(Cart)=  0.00009634 RMS(Int)=  0.00000001
 Iteration  2 RMS(Cart)=  0.00000001 RMS(Int)=  0.00000001
 Variable       Old X    -DE/DX   Delta X   Delta X   Delta X     New X
                                 (Linear)    (Quad)   (Total)
    R1        2.28032  -0.00007   0.00000  -0.00007  -0.00007   2.28025
    R2        2.09854  -0.00003   0.00000  -0.00010  -0.00010   2.09844
    R3        2.09854  -0.00004   0.00000  -0.00010  -0.00010   2.09844
    A1        2.13599   0.00003   0.00000   0.00016   0.00016   2.13615
    A2        2.13622  -0.00002   0.00000  -0.00007  -0.00007   2.13615
    A3        2.01097  -0.00001   0.00000  -0.00009  -0.00009   2.01088
    D1       -3.14154  -0.00000   0.00000  -0.00005  -0.00005   3.14159
         Item               Value     Threshold  Converged?
 Maximum Force            0.000065     0.000450     YES
 RMS     Force            0.000033     0.000300     YES
 Maximum Displacement     0.000150     0.001800     YES
 RMS     Displacement     0.000096     0.001200     YES
 Predicted change in Energy=-9.012505D-09
 Optimization completed.
    -- Stationary point found.
                           ----------------------------
                           !   Optimized Parameters   !
                           ! (Angstroms and Degrees)  !
 --------------------------                            --------------------------
 ! Name  Definition              Value          Derivative Info.                !
 --------------------------------------------------------------------------------
 ! R1    R(1,2)                  1.2067         -DE/DX =   -0.0001              !
 ! R2    R(1,3)                  1.1105         -DE/DX =    0.0                 !
 ! R3    R(1,4)                  1.1105         -DE/DX =    0.0                 !
 ! A1    A(2,1,3)              122.3834         -DE/DX =    0.0                 !
 ! A2    A(2,1,4)              122.3966         -DE/DX =    0.0                 !
 ! A3    A(3,1,4)              115.22           -DE/DX =    0.0                 !
 ! D1    D(2,1,4,3)            180.0029         -DE/DX =    0.0                 !
 --------------------------------------------------------------------------------
 GradGradGradGradGradGradGradGradGradGradGradGradGradGradGradGradGradGrad

 Leave Link  103 at Sat Aug 10 16:32:31 2019, MaxMem=  4294967296 cpu:               0.8 elap:               0.1

 ----------------------------------------------------------------------

 Electric dipole moment (input orientation):
 (Debye = 10**-18 statcoulomb cm , SI units = C m)
                  (au)            (Debye)         (10**-30 SI)
   Tot        0.858723D+00      0.218266D+01      0.728056D+01
   x         -0.858723D+00     -0.218266D+01     -0.728056D+01
   y          0.000000D+00      0.000000D+00      0.000000D+00
   z          0.000000D+00      0.000000D+00      0.000000D+00

 Dipole polarizability, Alpha (input orientation).
 (esu units = cm**3 , SI units = C**2 m**2 J**-1)
 Alpha(0;0):
               (au)            (10**-24 esu)      (10**-40 SI)
   iso        0.132560D+02      0.196434D+01      0.218563D+01
   aniso      0.101125D+02      0.149852D+01      0.166733D+01
   xx         0.185182D+02      0.274412D+01      0.305325D+01
   yx         0.443829D-03      0.657686D-04      0.731774D-04
   yy         0.142745D+02      0.211527D+01      0.235355D+01
   zx         0.314119D-04      0.465476D-05      0.517912D-05
   zy         0.000000D+00      0.000000D+00      0.000000D+00
   zz         0.697533D+01      0.103364D+01      0.115008D+01

 ----------------------------------------------------------------------

 Dipole orientation:
     6          0.00001315         -0.00000137          0.99964055
     8         -0.00000368         -0.00003438         -1.28067684
     1         -0.00003758          1.77219830          2.12355554
     1         -0.00001565         -1.77190935          2.12401777

 Electric dipole moment (dipole orientation):
 (Debye = 10**-18 statcoulomb cm , SI units = C m)
                  (au)            (Debye)         (10**-30 SI)
   Tot        0.858723D+00      0.218266D+01      0.728056D+01
   x          0.000000D+00      0.000000D+00      0.000000D+00
   y          0.000000D+00      0.000000D+00      0.000000D+00
   z          0.858723D+00      0.218266D+01      0.728056D+01

 Dipole polarizability, Alpha (dipole orientation).
 (esu units = cm**3 , SI units = C**2 m**2 J**-1)
 Alpha(0;0):
               (au)            (10**-24 esu)      (10**-40 SI)
   iso        0.132560D+02      0.196434D+01      0.218563D+01
   aniso      0.101125D+02      0.149852D+01      0.166733D+01
   xx         0.697533D+01      0.103364D+01      0.115008D+01
   yx        -0.451738D-04     -0.669407D-05     -0.744816D-05
   yy         0.142745D+02      0.211527D+01      0.235355D+01
   zx        -0.322824D-04     -0.478376D-05     -0.532265D-05
   zy        -0.417571D-03     -0.618777D-04     -0.688482D-04
   zz         0.185182D+02      0.274412D+01      0.305325D+01

 ----------------------------------------------------------------------

 Test job not archived.
 1\1\NSC-N1327\Freq\RB3LYP\6-31G(d,p)\C1H2O1\X_KJEJO\10-Aug-2019\0\\# f
 req(intmodes) iop(1/33=3) b3lyp/6-31g(d,p) geom=connectivity iop(7/75=
 -1)\\name\\0,1\C,-0.528987,-0.000004,0.000007\O,0.677705,-0.000014,-0.
 000002\H,-1.123743,0.9378,-0.000014\H,-1.123976,-0.937661,-0.000014\\V
 ersion=ES64L-G16RevB.01\State=1-A\HF=-114.5031994\RMSD=6.662e-09\RMSF=
 2.863e-05\ZeroPoint=0.0267188\Thermal=0.0295856\Dipole=-0.8587235,-0.0
 000053,0.\DipoleDeriv=0.9894029,-0.0000417,0.0000129,-0.0000056,0.8610
 919,0.,0.0000103,0.,0.1796734,-0.8612265,0.0000604,-0.0000104,0.000005
 3,-0.4248471,0.,0.0000024,0.,-0.3115604,-0.0640717,0.1073019,-0.000001
 3,0.1143995,-0.218147,-0.0000006,-0.0000064,0.0000069,0.0659351,-0.064
 1047,-0.1073206,-0.0000013,-0.1143992,-0.2180978,0.0000006,-0.0000064,
 -0.0000069,0.0659518\Polar=18.5182464,0.0004438,14.2745303,0.0000314,0
 .,6.9753312\Quadrupole=-0.2455915,0.0836431,0.1619484,0.0001616,0.0000
 09,0.\PG=C01 [X(C1H2O1)]\NImag=0\\1.01654145,0.00001346,0.58138331,0.0
 0000062,0.,0.17440880,-0.81557711,0.00002227,0.00000337,0.89957241,0.0
 0001591,-0.10776436,0.,-0.00003079,0.07370196,0.00000456,0.,-0.0575971
 4,-0.00000408,0.,0.01903689,-0.10045762,0.08087639,-0.00000200,-0.0420
 0430,0.03660373,-0.00000024,0.13204518,0.07582162,-0.23682811,0.000002
 55,0.01839165,0.01702753,0.00000016,-0.10584430,0.23886378,-0.00000259
 ,0.00000423,-0.05840951,0.00000036,-0.00000021,0.01928420,0.00000226,-
 0.00000337,0.01957401,-0.10050672,-0.08091212,-0.00000200,-0.04199100,
 -0.03658884,-0.00000024,0.01041674,0.01163103,-0.00000002,0.13208097,-
 0.07585099,-0.23679083,-0.00000255,-0.01838313,0.01703488,-0.00000016,
 -0.01163582,-0.01906320,-0.00000065,0.10586994,0.23881915,-0.00000259,
 -0.00000423,-0.05840215,0.00000036,0.00000021,0.01927605,-0.00000002,0
 .00000065,0.01955129,0.00000226,0.00000337,0.01957482\\-0.00004094,-0.
 00002813,0.00000562,0.00006504,0.00001945,-0.00000185,-0.00000228,0.00
 003752,-0.00000188,-0.00002182,-0.00002884,-0.00000188\\\@


 YOU CAN WIPE THE SLATE CLEAN, BUT YOU'LL STILL
 HAVE TO EAT A LITTLE CHALK DUST.
 Job cpu time:       0 days  0 hours  1 minutes  7.6 seconds.
 Elapsed time:       0 days  0 hours  0 minutes  6.3 seconds.
 File lengths (MBytes):  RWF=      6 Int=      0 D2E=      0 Chk=      8 Scr=      1
 Normal termination of Gaussian 16 at Sat Aug 10 16:32:31 2019.
