 Entering Gaussian System, Link 0=/software/sse/easybuild/prefix/software/Gaussian/16.B.01-avx2-nsc1-bdist/g16/g16.orig
 Input=freq-lm.wrap
 Output=freq-lm.log
 Initial command:
 /software/sse/easybuild/prefix/software/Gaussian/16.B.01-avx2-nsc1-bdist/g16/l1.exe "/scratch/local/Gau-354797.inp" -scrdir="/scratch/local/"
 Default is to use a total of  16 processors:
                               16 via shared-memory
                                1 via Linda
 Entering Link 1 = /software/sse/easybuild/prefix/software/Gaussian/16.B.01-avx2-nsc1-bdist/g16/l1.exe PID=    354806.
  
 Copyright (c) 1988-2017, Gaussian, Inc.  All Rights Reserved.
  
 This is part of the Gaussian(R) 16 program.  It is based on
 the Gaussian(R) 09 system (copyright 2009, Gaussian, Inc.),
 the Gaussian(R) 03 system (copyright 2003, Gaussian, Inc.),
 the Gaussian(R) 98 system (copyright 1998, Gaussian, Inc.),
 the Gaussian(R) 94 system (copyright 1995, Gaussian, Inc.),
 the Gaussian 92(TM) system (copyright 1992, Gaussian, Inc.),
 the Gaussian 90(TM) system (copyright 1990, Gaussian, Inc.),
 the Gaussian 88(TM) system (copyright 1988, Gaussian, Inc.),
 the Gaussian 86(TM) system (copyright 1986, Carnegie Mellon
 University), and the Gaussian 82(TM) system (copyright 1983,
 Carnegie Mellon University). Gaussian is a federally registered
 trademark of Gaussian, Inc.
  
 This software contains proprietary and confidential information,
 including trade secrets, belonging to Gaussian, Inc.
  
 This software is provided under written license and may be
 used, copied, transmitted, or stored only in accord with that
 written license.
  
 The following legend is applicable only to US Government
 contracts under FAR:
  
                    RESTRICTED RIGHTS LEGEND
  
 Use, reproduction and disclosure by the US Government is
 subject to restrictions as set forth in subparagraphs (a)
 and (c) of the Commercial Computer Software - Restricted
 Rights clause in FAR 52.227-19.
  
 Gaussian, Inc.
 340 Quinnipiac St., Bldg. 40, Wallingford CT 06492
  
  
 ---------------------------------------------------------------
 Warning -- This program may not be used in any manner that
 competes with the business of Gaussian, Inc. or will provide
 assistance to any competitor of Gaussian, Inc.  The licensee
 of this program is prohibited from giving any competitor of
 Gaussian, Inc. access to this program.  By using this program,
 the user acknowledges that Gaussian, Inc. is engaged in the
 business of creating and licensing software in the field of
 computational chemistry and represents and warrants to the
 licensee that it is not a competitor of Gaussian, Inc. and that
 it will not use this program in any manner prohibited above.
 ---------------------------------------------------------------
  

 Cite this work as:
 Gaussian 16, Revision B.01,
 M. J. Frisch, G. W. Trucks, H. B. Schlegel, G. E. Scuseria, 
 M. A. Robb, J. R. Cheeseman, G. Scalmani, V. Barone, 
 G. A. Petersson, H. Nakatsuji, X. Li, M. Caricato, A. V. Marenich, 
 J. Bloino, B. G. Janesko, R. Gomperts, B. Mennucci, H. P. Hratchian, 
 J. V. Ortiz, A. F. Izmaylov, J. L. Sonnenberg, D. Williams-Young, 
 F. Ding, F. Lipparini, F. Egidi, J. Goings, B. Peng, A. Petrone, 
 T. Henderson, D. Ranasinghe, V. G. Zakrzewski, J. Gao, N. Rega, 
 G. Zheng, W. Liang, M. Hada, M. Ehara, K. Toyota, R. Fukuda, 
 J. Hasegawa, M. Ishida, T. Nakajima, Y. Honda, O. Kitao, H. Nakai, 
 T. Vreven, K. Throssell, J. A. Montgomery, Jr., J. E. Peralta, 
 F. Ogliaro, M. J. Bearpark, J. J. Heyd, E. N. Brothers, K. N. Kudin, 
 V. N. Staroverov, T. A. Keith, R. Kobayashi, J. Normand, 
 K. Raghavachari, A. P. Rendell, J. C. Burant, S. S. Iyengar, 
 J. Tomasi, M. Cossi, J. M. Millam, M. Klene, C. Adamo, R. Cammi, 
 J. W. Ochterski, R. L. Martin, K. Morokuma, O. Farkas, 
 J. B. Foresman, and D. J. Fox, Gaussian, Inc., Wallingford CT, 2016.
 
 ******************************************
 Gaussian 16:  ES64L-G16RevB.01 20-Dec-2017
                10-Aug-2019 
 ******************************************
 %chk=freq.chk
 ----------------------------------------------------------------------
 # freq(intmodes) iop(1/33=3) b3lyp/6-31g(d,p) geom=connectivity iop(7/
 75=-1)
 ----------------------------------------------------------------------
 1/10=4,18=20,30=1,33=3,38=1,57=2/1,3;
 2/9=110,12=2,17=6,18=5,40=1/2;
 3/5=1,6=6,7=101,11=2,25=1,30=1,71=2,74=-5,140=1/1,2,3;
 4//1;
 5/5=2,38=5,98=1/2;
 8/6=4,10=90,11=11/1;
 11/6=1,8=1,9=11,15=111,16=1/1,2,10;
 10/6=1/2;
 6/7=2,8=2,9=2,10=2,28=1/1;
 7/8=21,10=1,25=1,75=-1/1,2,3,16;
 1/10=4,18=20,30=1,33=3/3;
 99//99;
 ONIOM results not found on unit 2.
 ----
 name
 ----
 TstMul:  ICh=     0
 TstMul:  Mul=     1
 TstMul:  ICh=     0
 TstMul:  Mul=     1
 Symbolic Z-matrix:
 Charge =  0 Multiplicity = 1
 C                    -1.05815  -0.91825   0. 
 H                    -0.94243  -1.5563   -0.88102 
 H                    -2.04449  -0.45668   0. 
 H                    -0.94243  -1.5563    0.88102 
 C                     0.        0.15539   0. 
 O                    -0.19612   1.34966   0. 
 O                     1.24826  -0.37838   0. 
 H                     1.86113   0.37629   0. 
 
 RdStrC is calling ZToCFu for IStruc=1 NZ=     8.
                                ZToCFu                                
 ---------------------------------------------------------------------
 Center     Atomic      Atomic             Coordinates (Angstroms)
 Number     Number       Type             X           Y           Z
 ---------------------------------------------------------------------
      1          6           0       -1.058153   -0.918251    0.000000
      2          1           0       -0.942426   -1.556299   -0.881018
      3          1           0       -2.044491   -0.456684    0.000000
      4          1           0       -0.942426   -1.556299    0.881018
      5          6           0        0.000000    0.155388    0.000000
      6          8           0       -0.196115    1.349655    0.000000
      7          8           0        1.248256   -0.378384    0.000000
      8          1           0        1.861132    0.376291    0.000000
 ---------------------------------------------------------------------
 Connectivity in DoCon:
 I=     1 IAn=  6 IBond, RBType=     2  1.00     3  1.00     4  1.00     5  1.00
 I=     2 IAn=  1 IBond, RBType=     1  1.00
 I=     3 IAn=  1 IBond, RBType=     1  1.00
 I=     4 IAn=  1 IBond, RBType=     1  1.00
 I=     5 IAn=  6 IBond, RBType=     1  1.00     6  2.00     7  1.00
 I=     6 IAn=  8 IBond, RBType=     5  2.00
 I=     7 IAn=  8 IBond, RBType=     5  1.00     8  1.00
 I=     8 IAn=  1 IBond, RBType=     7  1.00
 After GenITR:
 ITRead=  0  0  0  0  0  0  0  0
 MicOpt= -1 -1 -1 -1 -1 -1 -1 -1
 List IsCon N=      8 M=      2:
 I=      1 Vals=      2      1 |      3      1 |      4      1 |      5      1 |
 I=      2 Vals=      1      1 |
 I=      3 Vals=      1      1 |
 I=      4 Vals=      1      1 |
 I=      5 Vals=      1      1 |      6      2 |      7      1 |
 I=      6 Vals=      5      2 |
 I=      7 Vals=      5      1 |      8      1 |
 I=      8 Vals=      7      1 |
 Coordinate R1 contains atom 1 which is already in QM block.
 Coordinate R1 contains atom 2 which is already in QM block.
 Coordinate R2 contains atom 1 which is already in QM block.
 Coordinate R2 contains atom 3 which is already in QM block.
 Coordinate R3 contains atom 1 which is already in QM block.
 Coordinate R3 contains atom 4 which is already in QM block.
 Coordinate R4 contains atom 1 which is already in QM block.
 Coordinate R4 contains atom 5 which is already in QM block.
 Coordinate R5 contains atom 5 which is already in QM block.
 Coordinate R5 contains atom 6 which is already in QM block.
 Coordinate R6 contains atom 5 which is already in QM block.
 Coordinate R6 contains atom 7 which is already in QM block.
 Coordinate R7 contains atom 7 which is already in QM block.
 Coordinate R7 contains atom 8 which is already in QM block.
 Coordinate A1 contains atom 2 which is already in QM block.
 Coordinate A1 contains atom 1 which is already in QM block.
 Coordinate A1 contains atom 1 which is already in QM block.
 Coordinate A2 contains atom 2 which is already in QM block.
 Coordinate A2 contains atom 1 which is already in QM block.
 Coordinate A2 contains atom 1 which is already in QM block.
 Coordinate A3 contains atom 2 which is already in QM block.
 Coordinate A3 contains atom 1 which is already in QM block.
 Coordinate A3 contains atom 1 which is already in QM block.
 Coordinate A4 contains atom 3 which is already in QM block.
 Coordinate A4 contains atom 1 which is already in QM block.
 Coordinate A4 contains atom 1 which is already in QM block.
 Coordinate A5 contains atom 3 which is already in QM block.
 Coordinate A5 contains atom 1 which is already in QM block.
 Coordinate A5 contains atom 1 which is already in QM block.
 Coordinate A6 contains atom 4 which is already in QM block.
 Coordinate A6 contains atom 1 which is already in QM block.
 Coordinate A6 contains atom 1 which is already in QM block.
 Coordinate A7 contains atom 1 which is already in QM block.
 Coordinate A7 contains atom 5 which is already in QM block.
 Coordinate A7 contains atom 5 which is already in QM block.
 Coordinate A8 contains atom 1 which is already in QM block.
 Coordinate A8 contains atom 5 which is already in QM block.
 Coordinate A8 contains atom 5 which is already in QM block.
 Coordinate A9 contains atom 6 which is already in QM block.
 Coordinate A9 contains atom 5 which is already in QM block.
 Coordinate A9 contains atom 5 which is already in QM block.
 Coordinate A10 contains atom 5 which is already in QM block.
 Coordinate A10 contains atom 7 which is already in QM block.
 Coordinate A10 contains atom 7 which is already in QM block.
 Coordinate D1 contains atom 2 which is already in QM block.
 Coordinate D1 contains atom 1 which is already in QM block.
 Coordinate D1 contains atom 5 which is already in QM block.
 Coordinate D1 contains atom 6 which is already in QM block.
 Coordinate D2 contains atom 2 which is already in QM block.
 Coordinate D2 contains atom 1 which is already in QM block.
 Coordinate D2 contains atom 5 which is already in QM block.
 Coordinate D2 contains atom 7 which is already in QM block.
 Coordinate D3 contains atom 3 which is already in QM block.
 Coordinate D3 contains atom 1 which is already in QM block.
 Coordinate D3 contains atom 5 which is already in QM block.
 Coordinate D3 contains atom 6 which is already in QM block.
 Coordinate D4 contains atom 3 which is already in QM block.
 Coordinate D4 contains atom 1 which is already in QM block.
 Coordinate D4 contains atom 5 which is already in QM block.
 Coordinate D4 contains atom 7 which is already in QM block.
 Coordinate D5 contains atom 4 which is already in QM block.
 Coordinate D5 contains atom 1 which is already in QM block.
 Coordinate D5 contains atom 5 which is already in QM block.
 Coordinate D5 contains atom 6 which is already in QM block.
 Coordinate D6 contains atom 4 which is already in QM block.
 Coordinate D6 contains atom 1 which is already in QM block.
 Coordinate D6 contains atom 5 which is already in QM block.
 Coordinate D6 contains atom 7 which is already in QM block.
 Coordinate D7 contains atom 1 which is already in QM block.
 Coordinate D7 contains atom 5 which is already in QM block.
 Coordinate D7 contains atom 7 which is already in QM block.
 Coordinate D7 contains atom 8 which is already in QM block.
 Coordinate D8 contains atom 6 which is already in QM block.
 Coordinate D8 contains atom 5 which is already in QM block.
 Coordinate D8 contains atom 7 which is already in QM block.
 Coordinate D8 contains atom 8 which is already in QM block.
 Saved connectivity
 I=     1 IAn=  6 IBond, RBType=     2  1.00     3  1.00     4  1.00     5  1.00
 I=     2 IAn=  1 IBond, RBType=     1  1.00
 I=     3 IAn=  1 IBond, RBType=     1  1.00
 I=     4 IAn=  1 IBond, RBType=     1  1.00
 I=     5 IAn=  6 IBond, RBType=     1  1.00     6  2.00     7  1.00
 I=     6 IAn=  8 IBond, RBType=     5  2.00
 I=     7 IAn=  8 IBond, RBType=     5  1.00     8  1.00
 I=     8 IAn=  1 IBond, RBType=     7  1.00
 ITRead=  0  0  0  0  0  0  0  0
 MicOpt= -1 -1 -1 -1 -1 -1 -1 -1
 NAtoms=      8 NQM=        8 NQMF=       0 NMMI=      0 NMMIF=      0
                NMic=       0 NMicF=      0.
 No MM parameters found.
 Leave Link  101 at Sat Aug 10 16:32:45 2019, MaxMem=  4294967296 cpu:               5.6 elap:               0.4

 GradGradGradGradGradGradGradGradGradGradGradGradGradGradGradGradGradGrad
 Berny optimization.
 GetPCM: File not found, return IValue=0.
 Optmz: redundant internal coordinate code flag= 1
 Initialization pass.
                           ----------------------------
                           !    Initial Parameters    !
                           ! (Angstroms and Degrees)  !
 --------------------------                            --------------------------
 ! Name  Definition              Value          Derivative Info.                !
 --------------------------------------------------------------------------------
 ! R1    R(1,2)                  1.0939         calculate D2E/DX2 analytically  !
 ! R2    R(1,3)                  1.089          calculate D2E/DX2 analytically  !
 ! R3    R(1,4)                  1.0939         calculate D2E/DX2 analytically  !
 ! R4    R(1,5)                  1.5074         calculate D2E/DX2 analytically  !
 ! R5    R(5,6)                  1.2103         calculate D2E/DX2 analytically  !
 ! R6    R(5,7)                  1.3576         calculate D2E/DX2 analytically  !
 ! R7    R(7,8)                  0.9722         calculate D2E/DX2 analytically  !
 ! A1    A(2,1,3)              110.0616         calculate D2E/DX2 analytically  !
 ! A2    A(2,1,4)              107.2914         calculate D2E/DX2 analytically  !
 ! A3    A(2,1,5)              109.9471         calculate D2E/DX2 analytically  !
 ! A4    A(3,1,4)              110.0616         calculate D2E/DX2 analytically  !
 ! A5    A(3,1,5)              109.5061         calculate D2E/DX2 analytically  !
 ! A6    A(4,1,5)              109.9471         calculate D2E/DX2 analytically  !
 ! A7    A(1,5,6)              126.0907         calculate D2E/DX2 analytically  !
 ! A8    A(1,5,7)              111.4316         calculate D2E/DX2 analytically  !
 ! A9    A(6,5,7)              122.4778         calculate D2E/DX2 analytically  !
 ! A10   A(5,7,8)              105.928          calculate D2E/DX2 analytically  !
 ! D1    D(2,1,5,6)            121.0446         calculate D2E/DX2 analytically  !
 ! D2    D(2,1,5,7)            -58.9554         calculate D2E/DX2 analytically  !
 ! D3    D(3,1,5,6)              0.0            calculate D2E/DX2 analytically  !
 ! D4    D(3,1,5,7)            180.0            calculate D2E/DX2 analytically  !
 ! D5    D(4,1,5,6)           -121.0446         calculate D2E/DX2 analytically  !
 ! D6    D(4,1,5,7)             58.9554         calculate D2E/DX2 analytically  !
 ! D7    D(1,5,7,8)            180.0            calculate D2E/DX2 analytically  !
 ! D8    D(6,5,7,8)              0.0            calculate D2E/DX2 analytically  !
 --------------------------------------------------------------------------------
 Maximum allowed force set to 1.00D+20.
 Trust Radius=3.00D-01 FncErr=1.00D-07 GrdErr=1.00D-07 EigMax=2.50D+02 EigMin=1.00D-04
 Number of steps in this run=      2 maximum allowed number of steps=      2.
 GradGradGradGradGradGradGradGradGradGradGradGradGradGradGradGradGradGrad

 Leave Link  103 at Sat Aug 10 16:32:45 2019, MaxMem=  4294967296 cpu:               0.1 elap:               0.0
                          Input orientation:                          
 ---------------------------------------------------------------------
 Center     Atomic      Atomic             Coordinates (Angstroms)
 Number     Number       Type             X           Y           Z
 ---------------------------------------------------------------------
      1          6           0       -1.058153   -0.918251    0.000000
      2          1           0       -0.942426   -1.556299   -0.881018
      3          1           0       -2.044491   -0.456684    0.000000
      4          1           0       -0.942426   -1.556299    0.881018
      5          6           0        0.000000    0.155388    0.000000
      6          8           0       -0.196115    1.349655    0.000000
      7          8           0        1.248256   -0.378384    0.000000
      8          1           0        1.861132    0.376291    0.000000
 ---------------------------------------------------------------------
                    Distance matrix (angstroms):
                    1          2          3          4          5
     1  C    0.000000
     2  H    1.093934   0.000000
     3  H    1.088993   1.788825   0.000000
     4  H    1.093934   1.762036   1.788825   0.000000
     5  C    1.507444   2.143416   2.134145   2.143416   0.000000
     6  O    2.426213   3.126938   2.584445   3.126938   1.210262
     7  O    2.368750   2.638705   3.293678   2.638705   1.357592
     8  H    3.193441   3.517248   3.993462   3.517248   1.874196
                    6          7          8
     6  O    0.000000
     7  O    2.252183   0.000000
     8  H    2.275896   0.972189   0.000000
 Stoichiometry    C2H4O2
 Framework group  CS[SG(C2H2O2),X(H2)]
 Deg. of freedom    12
 Full point group                 CS      NOp   2
 Largest Abelian subgroup         CS      NOp   2
 Largest concise Abelian subgroup CS      NOp   2
                         Standard orientation:                         
 ---------------------------------------------------------------------
 Center     Atomic      Atomic             Coordinates (Angstroms)
 Number     Number       Type             X           Y           Z
 ---------------------------------------------------------------------
      1          6           0        1.058153   -0.918251    0.000000
      2          1           0        0.942426   -1.556299    0.881018
      3          1           0        2.044491   -0.456684    0.000000
      4          1           0        0.942426   -1.556299   -0.881018
      5          6           0        0.000000    0.155388    0.000000
      6          8           0        0.196115    1.349655    0.000000
      7          8           0       -1.248256   -0.378384    0.000000
      8          1           0       -1.861132    0.376291    0.000000
 ---------------------------------------------------------------------
 Rotational constants (GHZ):          11.2847614           9.4208418           5.3030373
 Standard basis: 6-31G(d,p) (6D, 7F)
 There are    57 symmetry adapted cartesian basis functions of A'  symmetry.
 There are    23 symmetry adapted cartesian basis functions of A"  symmetry.
 There are    57 symmetry adapted basis functions of A'  symmetry.
 There are    23 symmetry adapted basis functions of A"  symmetry.
    80 basis functions,   140 primitive gaussians,    80 cartesian basis functions
    16 alpha electrons       16 beta electrons
       nuclear repulsion energy       120.8039841660 Hartrees.
 NAtoms=    8 NActive=    8 NUniq=    7 SFac= 1.31D+00 NAtFMM=   60 NAOKFM=F Big=F
 Integral buffers will be    131072 words long.
 Raffenetti 2 integral format.
 Two-electron integral symmetry is turned on.
 One-electron integrals computed using PRISM.
 NBasis=    80 RedAO= T EigKep=  4.34D-03  NBF=    57    23
 NBsUse=    80 1.00D-06 EigRej= -1.00D+00 NBFU=    57    23
 ExpMin= 1.61D-01 ExpMax= 5.48D+03 ExpMxC= 8.25D+02 IAcc=3 IRadAn=         5 AccDes= 0.00D+00
 Harris functional with IExCor=  402 and IRadAn=       5 diagonalized for initial guess.
 HarFok:  IExCor=  402 AccDes= 0.00D+00 IRadAn=         5 IDoV= 1 UseB2=F ITyADJ=14
 ICtDFT=  3500011 ScaDFX=  1.000000  1.000000  1.000000  1.000000
 FoFCou: FMM=F IPFlag=           0 FMFlag=      100000 FMFlg1=           0
         NFxFlg=           0 DoJE=T BraDBF=F KetDBF=T FulRan=T
         wScrn=  0.000000 ICntrl=       500 IOpCl=  0 I1Cent=   200000004 NGrid=           0
         NMat0=    1 NMatS0=      1 NMatT0=    0 NMatD0=    1 NMtDS0=    0 NMtDT0=    0
 Petite list used in FoFCou.
 Initial guess orbital symmetries:
       Occupied  (A') (A') (A') (A') (A') (A') (A') (A') (A') (A')
                 (A") (A') (A') (A") (A") (A')
       Virtual   (A") (A') (A') (A') (A") (A') (A') (A') (A') (A")
                 (A') (A') (A") (A') (A') (A') (A") (A') (A') (A')
                 (A") (A') (A") (A') (A') (A") (A') (A") (A') (A')
                 (A") (A") (A') (A') (A') (A") (A') (A') (A") (A")
                 (A') (A') (A") (A') (A') (A") (A') (A") (A') (A")
                 (A') (A') (A') (A") (A') (A') (A') (A") (A') (A')
                 (A') (A') (A') (A')
 The electronic state of the initial guess is 1-A'.
 Keep R1 ints in memory in symmetry-blocked form, NReq=19750980.
 Requested convergence on RMS density matrix=1.00D-08 within 128 cycles.
 Requested convergence on MAX density matrix=1.00D-06.
 Requested convergence on             energy=1.00D-06.
 No special actions if energy rises.
 Integral accuracy reduced to 1.0D-05 until final iterations.
 Initial convergence to 1.0D-05 achieved.  Increase integral accuracy.
 SCF Done:  E(RB3LYP) =  -229.091479718     A.U. after   13 cycles
            NFock= 13  Conv=0.70D-08     -V/T= 2.0088
 DoSCS=F DFT=T ScalE2(SS,OS)=  1.000000  1.000000
 Range of M.O.s used for correlation:     1    80
 NBasis=    80 NAE=    16 NBE=    16 NFC=     0 NFV=     0
 NROrb=     80 NOA=    16 NOB=    16 NVA=    64 NVB=    64
 Symmetrizing basis deriv contribution to polar:
 IMax=3 JMax=2 DiffMx= 0.00D+00
 G2DrvN: will do     9 centers at a time, making    1 passes.
 Calling FoFCou, ICntrl=  3107 FMM=F I1Cent=   0 AccDes= 0.00D+00.
 End of G2Drv F.D. properties file   721 does not exist.
 End of G2Drv F.D. properties file   722 does not exist.
 End of G2Drv F.D. properties file   788 does not exist.
          IDoAtm=11111111
          Differentiating once with respect to electric field.
                with respect to dipole field.
          Differentiating once with respect to nuclear coordinates.
 Keep R1 ints in memory in symmetry-blocked form, NReq=19702434.
          There are    24 degrees of freedom in the 1st order CPHF.  IDoFFX=4 NUNeed=    24.
     24 vectors produced by pass  0 Test12= 4.27D-15 4.17D-09 XBig12= 2.43D+01 2.94D+00.
 AX will form    24 AO Fock derivatives at one time.
     24 vectors produced by pass  1 Test12= 4.27D-15 4.17D-09 XBig12= 3.09D+00 5.90D-01.
     24 vectors produced by pass  2 Test12= 4.27D-15 4.17D-09 XBig12= 5.95D-02 4.83D-02.
     24 vectors produced by pass  3 Test12= 4.27D-15 4.17D-09 XBig12= 5.07D-04 5.93D-03.
     24 vectors produced by pass  4 Test12= 4.27D-15 4.17D-09 XBig12= 8.57D-07 1.94D-04.
     12 vectors produced by pass  5 Test12= 4.27D-15 4.17D-09 XBig12= 6.07D-10 4.80D-06.
      3 vectors produced by pass  6 Test12= 4.27D-15 4.17D-09 XBig12= 3.47D-13 1.34D-07.
 InvSVY:  IOpt=1 It=  1 EMax= 8.88D-16
 Solved reduced A of dimension   135 with    24 vectors.
 Isotropic polarizability for W=    0.000000       26.74 Bohr**3.
 End of Minotr F.D. properties file   721 does not exist.
 End of Minotr F.D. properties file   722 does not exist.
 End of Minotr F.D. properties file   788 does not exist.

 **********************************************************************

            Population analysis using the SCF Density.

 **********************************************************************

 Orbital symmetries:
       Occupied  (A') (A') (A') (A') (A') (A') (A') (A') (A') (A')
                 (A") (A') (A') (A") (A") (A')
       Virtual   (A") (A') (A') (A') (A") (A') (A') (A') (A") (A')
                 (A') (A') (A") (A') (A') (A') (A") (A') (A') (A')
                 (A") (A') (A") (A') (A') (A") (A') (A") (A') (A')
                 (A") (A') (A") (A') (A') (A') (A") (A") (A') (A")
                 (A') (A') (A") (A') (A') (A') (A") (A") (A') (A")
                 (A') (A') (A") (A') (A') (A') (A') (A') (A") (A')
                 (A') (A') (A') (A')
 The electronic state is 1-A'.
 Alpha  occ. eigenvalues --  -19.19554 -19.13864 -10.32315 -10.20066  -1.10421
 Alpha  occ. eigenvalues --   -1.01366  -0.75831  -0.60908  -0.48790  -0.47465
 Alpha  occ. eigenvalues --   -0.46689  -0.41169  -0.39239  -0.39139  -0.31837
 Alpha  occ. eigenvalues --   -0.27495
 Alpha virt. eigenvalues --    0.01002   0.07665   0.11587   0.15661   0.16989
 Alpha virt. eigenvalues --    0.21395   0.28901   0.33050   0.52045   0.53859
 Alpha virt. eigenvalues --    0.57809   0.59189   0.61196   0.66849   0.74715
 Alpha virt. eigenvalues --    0.77028   0.82907   0.84697   0.87523   0.91276
 Alpha virt. eigenvalues --    0.92907   0.95457   1.02463   1.05751   1.07425
 Alpha virt. eigenvalues --    1.30684   1.32546   1.38250   1.42738   1.52807
 Alpha virt. eigenvalues --    1.56420   1.70659   1.71945   1.74667   1.79906
 Alpha virt. eigenvalues --    1.85536   1.86606   2.01538   2.02036   2.05887
 Alpha virt. eigenvalues --    2.06372   2.18417   2.22849   2.30337   2.39336
 Alpha virt. eigenvalues --    2.49039   2.49989   2.54103   2.59552   2.66148
 Alpha virt. eigenvalues --    2.72939   2.77159   2.88683   2.90713   3.03259
 Alpha virt. eigenvalues --    3.09793   3.22586   3.40668   3.40739   3.45146
 Alpha virt. eigenvalues --    3.89587   4.07802   4.24503   4.56814
          Condensed to atoms (all electrons):
               1          2          3          4          5          6
     1  C    5.089021   0.366253   0.375269   0.366253   0.347297  -0.075001
     2  H    0.366253   0.553078  -0.023352  -0.024622  -0.020232   0.001231
     3  H    0.375269  -0.023352   0.547804  -0.023352  -0.026583   0.002469
     4  H    0.366253  -0.024622  -0.023352   0.553078  -0.020232   0.001231
     5  C    0.347297  -0.020232  -0.026583  -0.020232   4.328995   0.600041
     6  O   -0.075001   0.001231   0.002469   0.001231   0.600041   7.999744
     7  O   -0.103408   0.002537   0.003333   0.002537   0.254094  -0.087022
     8  H    0.010628  -0.000328  -0.000334  -0.000328  -0.009104   0.010803
               7          8
     1  C   -0.103408   0.010628
     2  H    0.002537  -0.000328
     3  H    0.003333  -0.000334
     4  H    0.002537  -0.000328
     5  C    0.254094  -0.009104
     6  O   -0.087022   0.010803
     7  O    8.136790   0.264752
     8  H    0.264752   0.401828
 Mulliken charges:
               1
     1  C   -0.376311
     2  H    0.145434
     3  H    0.144744
     4  H    0.145434
     5  C    0.545724
     6  O   -0.453496
     7  O   -0.473612
     8  H    0.322083
 Sum of Mulliken charges =  -0.00000
 Mulliken charges with hydrogens summed into heavy atoms:
               1
     1  C    0.059301
     5  C    0.545724
     6  O   -0.453496
     7  O   -0.151529
 APT charges:
               1
     1  C   -0.063232
     2  H    0.026673
     3  H    0.022819
     4  H    0.026673
     5  C    1.097410
     6  O   -0.699701
     7  O   -0.687595
     8  H    0.276952
 Sum of APT charges =   0.00000
 APT charges with hydrogens summed into heavy atoms:
               1
     1  C    0.012933
     5  C    1.097410
     6  O   -0.699701
     7  O   -0.410642
 Electronic spatial extent (au):  <R**2>=            253.3980
 Charge=             -0.0000 electrons
 Dipole moment (field-independent basis, Debye):
    X=             -0.4086    Y=             -1.5537    Z=             -0.0000  Tot=              1.6065
 Quadrupole moment (field-independent basis, Debye-Ang):
   XX=            -19.8185   YY=            -26.5787   ZZ=            -22.6681
   XY=             -3.7103   XZ=              0.0000   YZ=              0.0000
 Traceless Quadrupole moment (field-independent basis, Debye-Ang):
   XX=              3.2033   YY=             -3.5570   ZZ=              0.3536
   XY=             -3.7103   XZ=              0.0000   YZ=              0.0000
 Octapole moment (field-independent basis, Debye-Ang**2):
  XXX=            -11.1218  YYY=             -3.2368  ZZZ=              0.0000  XYY=             -1.7022
  XXY=              5.1363  XXZ=              0.0000  XZZ=             -1.2921  YZZ=              0.3522
  YYZ=              0.0000  XYZ=              0.0000
 Hexadecapole moment (field-independent basis, Debye-Ang**3):
 XXXX=           -117.9904 YYYY=           -138.5386 ZZZZ=            -25.2432 XXXY=              5.5847
 XXXZ=              0.0000 YYYX=             10.1954 YYYZ=             -0.0000 ZZZX=              0.0000
 ZZZY=              0.0000 XXYY=            -46.6540 XXZZ=            -28.6474 YYZZ=            -24.3805
 XXYZ=             -0.0000 YYXZ=             -0.0000 ZZXY=              3.2406
 N-N= 1.208039841660D+02 E-N=-7.786026585526D+02  KE= 2.270864759758D+02
 Symmetry A'   KE= 2.168101500916D+02
 Symmetry A"   KE= 1.027632588425D+01
  Exact polarizability:  30.201  -0.842  31.059   0.000  -0.000  18.946
 Approx polarizability:  39.119   4.006  49.045  -0.000   0.000  25.953
 Calling FoFJK, ICntrl=    100127 FMM=F ISym2X=1 I1Cent= 0 IOpClX= 0 NMat=1 NMatS=1 NMatT=0.
 Full mass-weighted force constant matrix:
 Low frequencies ---   -4.9478   -0.0010    0.0006    0.0012    5.0323    8.6615
 Low frequencies ---   79.2613  419.6503  543.7743
 Diagonal vibrational polarizability:
       10.1118496       3.1094587      10.8815300
 Harmonic frequencies (cm**-1), IR intensities (KM/Mole), Raman scattering
 activities (A**4/AMU), depolarization ratios for plane and unpolarized
 incident light, reduced masses (AMU), force constants (mDyne/A),
 and normal coordinates:
                      1                      2                      3
                     A"                     A'                     A"
 Frequencies --     79.2601               419.6503               543.7743
 Red. masses --      1.0855                 2.8872                 1.6421
 Frc consts  --      0.0040                 0.2996                 0.2861
 IR Inten    --      0.5988                 4.3932                19.9428
  Atom  AN      X      Y      Z        X      Y      Z        X      Y      Z
     1   6     0.00  -0.00   0.00    -0.16  -0.11   0.00     0.00  -0.00  -0.01
     2   1    -0.33  -0.38  -0.32    -0.47  -0.07  -0.01     0.31  -0.24  -0.15
     3   1    -0.00  -0.00   0.53     0.05  -0.56  -0.00     0.00  -0.00  -0.27
     4   1     0.33   0.38  -0.32    -0.47  -0.07   0.01    -0.31   0.24  -0.15
     5   6     0.00  -0.00   0.01     0.08   0.13  -0.00     0.00   0.00   0.23
     6   8    -0.00  -0.00  -0.05    -0.07   0.16   0.00    -0.00   0.00  -0.06
     7   8     0.00   0.00   0.05     0.19  -0.11  -0.00    -0.00   0.00  -0.02
     8   1     0.00   0.00  -0.01    -0.03  -0.29   0.00     0.00   0.00  -0.72
                      4                      5                      6
                     A'                     A"                     A'
 Frequencies --    581.9866               683.4675               865.8300
 Red. masses --      4.1976                 1.4306                 3.7690
 Frc consts  --      0.8377                 0.3937                 1.6647
 IR Inten    --     42.5193               107.1279                 2.7235
  Atom  AN      X      Y      Z        X      Y      Z        X      Y      Z
     1   6    -0.17   0.20  -0.00    -0.00   0.00   0.04    -0.23   0.22   0.00
     2   1    -0.11   0.19  -0.00     0.16  -0.16  -0.07    -0.27   0.23  -0.00
     3   1    -0.23   0.32   0.00    -0.00   0.00  -0.10    -0.28   0.30  -0.00
     4   1    -0.11   0.19   0.00    -0.16   0.16  -0.07    -0.27   0.23   0.00
     5   6    -0.11   0.08   0.00    -0.00  -0.00   0.13     0.05  -0.16  -0.00
     6   8     0.31  -0.00  -0.00     0.00  -0.00  -0.06    -0.06  -0.19   0.00
     7   8    -0.05  -0.22   0.00     0.00  -0.00  -0.10     0.22   0.07   0.00
     8   1    -0.45  -0.55  -0.00    -0.00  -0.00   0.92     0.51   0.31  -0.00
                      7                      8                      9
                     A'                     A"                     A'
 Frequencies --   1002.4842              1069.8174              1217.3787
 Red. masses --      1.6054                 1.7907                 1.9138
 Frc consts  --      0.9506                 1.2075                 1.6710
 IR Inten    --     56.9407                 9.1496               209.7803
  Atom  AN      X      Y      Z        X      Y      Z        X      Y      Z
     1   6    -0.09  -0.13   0.00    -0.00  -0.00  -0.17    -0.08  -0.04   0.00
     2   1     0.45  -0.12   0.07    -0.37   0.49   0.16     0.14   0.05   0.08
     3   1    -0.40   0.54  -0.00    -0.00   0.00   0.35    -0.24   0.31  -0.00
     4   1     0.45  -0.12  -0.07     0.37  -0.49   0.16     0.14   0.05  -0.08
     5   6    -0.08   0.02  -0.00    -0.00  -0.00   0.20     0.15  -0.00  -0.00
     6   8    -0.01   0.04   0.00    -0.00  -0.00  -0.04     0.01   0.10   0.00
     7   8     0.11   0.04   0.00     0.00   0.00  -0.03    -0.11  -0.13   0.00
     8   1    -0.15  -0.17  -0.00     0.00   0.00   0.01     0.66   0.53  -0.00
                     10                     11                     12
                     A'                     A'                     A'
 Frequencies --   1355.8576              1422.6003              1484.4460
 Red. masses --      1.7075                 1.6691                 1.0538
 Frc consts  --      1.8495                 1.9902                 1.3682
 IR Inten    --     26.1217                64.8369                12.8640
  Atom  AN      X      Y      Z        X      Y      Z        X      Y      Z
     1   6     0.01  -0.06  -0.00    -0.14   0.11  -0.00    -0.04  -0.03   0.00
     2   1    -0.21   0.28   0.19     0.46  -0.26  -0.18     0.24   0.45   0.37
     3   1    -0.21   0.41   0.00     0.13  -0.45   0.00     0.15  -0.40  -0.00
     4   1    -0.21   0.28  -0.19     0.46  -0.26   0.18     0.24   0.45  -0.37
     5   6     0.22  -0.02  -0.00     0.16  -0.01  -0.00    -0.03   0.01   0.00
     6   8    -0.04  -0.03   0.00    -0.03  -0.02   0.00     0.00  -0.02  -0.00
     7   8    -0.06   0.05   0.00    -0.04   0.02  -0.00     0.01  -0.00  -0.00
     8   1    -0.53  -0.37   0.00    -0.26  -0.18   0.00     0.04   0.03  -0.00
                     13                     14                     15
                     A"                     A'                     A'
 Frequencies --   1490.1455              1855.1367              3067.5413
 Red. masses --      1.0459                 9.3752                 1.0370
 Frc consts  --      1.3683                19.0099                 5.7493
 IR Inten    --      8.2727               285.7163                 1.8467
  Atom  AN      X      Y      Z        X      Y      Z        X      Y      Z
     1   6     0.00  -0.00  -0.05     0.02  -0.06  -0.00    -0.02   0.05  -0.00
     2   1     0.48   0.04   0.06     0.03  -0.14  -0.06    -0.07  -0.37   0.52
     3   1    -0.00   0.00   0.73    -0.09   0.23  -0.00     0.37   0.18  -0.00
     4   1    -0.48  -0.04   0.06     0.03  -0.14   0.06    -0.07  -0.37  -0.52
     5   6    -0.00   0.00  -0.02     0.06   0.70   0.00     0.00  -0.00  -0.00
     6   8     0.00  -0.00   0.00    -0.06  -0.43  -0.00    -0.00  -0.00  -0.00
     7   8     0.00  -0.00   0.00    -0.02  -0.06  -0.00    -0.00   0.00   0.00
     8   1     0.00   0.00   0.01     0.35   0.27   0.00     0.00  -0.00   0.00
                     16                     17                     18
                     A"                     A'                     A'
 Frequencies --   3133.1183              3185.4693              3752.8208
 Red. masses --      1.1005                 1.1037                 1.0641
 Frc consts  --      6.3647                 6.5985                 8.8297
 IR Inten    --      5.2468                 5.6074                43.9057
  Atom  AN      X      Y      Z        X      Y      Z        X      Y      Z
     1   6    -0.00  -0.00  -0.09    -0.07  -0.06   0.00    -0.00   0.00  -0.00
     2   1    -0.08  -0.42   0.56     0.02   0.16  -0.23    -0.00  -0.00   0.00
     3   1     0.00   0.00  -0.02     0.82   0.39  -0.00    -0.00  -0.00   0.00
     4   1     0.08   0.42   0.56     0.02   0.16   0.23    -0.00  -0.00  -0.00
     5   6    -0.00  -0.00  -0.00    -0.00  -0.00  -0.00     0.00  -0.00  -0.00
     6   8    -0.00   0.00  -0.00     0.00   0.00   0.00    -0.00  -0.00   0.00
     7   8     0.00   0.00   0.00     0.00   0.00   0.00     0.04  -0.05   0.00
     8   1     0.00   0.00   0.00    -0.00   0.00   0.00    -0.65   0.76   0.00

 -------------------
 - Thermochemistry -
 -------------------
 Temperature   298.150 Kelvin.  Pressure   1.00000 Atm.
 Atom     1 has atomic number  6 and mass  12.00000
 Atom     2 has atomic number  1 and mass   1.00783
 Atom     3 has atomic number  1 and mass   1.00783
 Atom     4 has atomic number  1 and mass   1.00783
 Atom     5 has atomic number  6 and mass  12.00000
 Atom     6 has atomic number  8 and mass  15.99491
 Atom     7 has atomic number  8 and mass  15.99491
 Atom     8 has atomic number  1 and mass   1.00783
 Molecular mass:    60.02113 amu.
 Principal axes and moments of inertia in atomic units:
                           1         2         3
     Eigenvalues --   159.92728 191.56900 340.32218
           X            0.76446   0.64467   0.00000
           Y           -0.64467   0.76446   0.00000
           Z           -0.00000   0.00000   1.00000
 This molecule is an asymmetric top.
 Rotational symmetry number  1.
 Rotational temperatures (Kelvin)      0.54158     0.45213     0.25451
 Rotational constants (GHZ):          11.28476     9.42084     5.30304
 Zero-point vibrational energy     162756.6 (Joules/Mol)
                                   38.89977 (Kcal/Mol)
 Warning -- explicit consideration of   4 degrees of freedom as
           vibrations may cause significant error
 Vibrational temperatures:    114.04   603.78   782.37   837.35   983.36
          (Kelvin)           1245.74  1442.35  1539.23  1751.54  1950.78
                             2046.80  2135.79  2143.99  2669.13  4413.51
                             4507.86  4583.18  5399.47
 
 Zero-point correction=                           0.061991 (Hartree/Particle)
 Thermal correction to Energy=                    0.066541
 Thermal correction to Enthalpy=                  0.067485
 Thermal correction to Gibbs Free Energy=         0.034867
 Sum of electronic and zero-point Energies=           -229.029489
 Sum of electronic and thermal Energies=              -229.024939
 Sum of electronic and thermal Enthalpies=            -229.023994
 Sum of electronic and thermal Free Energies=         -229.056612
 
                     E (Thermal)             CV                S
                      KCal/Mol        Cal/Mol-Kelvin    Cal/Mol-Kelvin
 Total                   41.755             14.259             68.650
 Electronic               0.000              0.000              0.000
 Translational            0.889              2.981             38.196
 Rotational               0.889              2.981             23.859
 Vibrational             39.978              8.297              6.594
 Vibration     1          0.600              1.963              3.909
 Vibration     2          0.782              1.428              0.893
 Vibration     3          0.899              1.153              0.557
 Vibration     4          0.939              1.070              0.482
                       Q            Log10(Q)             Ln(Q)
 Total Bot       0.916412D-16        -16.037909        -36.928651
 Total V=0       0.299104D+13         12.475822         28.726641
 Vib (Bot)       0.137172D-27        -27.862734        -64.156316
 Vib (Bot)    1  0.259862D+01          0.414742          0.954980
 Vib (Bot)    2  0.418530D+00         -0.378274         -0.871008
 Vib (Bot)    3  0.290320D+00         -0.537123         -1.236772
 Vib (Bot)    4  0.261309D+00         -0.582845         -1.342050
 Vib (V=0)       0.447710D+01          0.650997          1.498976
 Vib (V=0)    1  0.314628D+01          0.497798          1.146222
 Vib (V=0)    2  0.115205D+01          0.061471          0.141541
 Vib (V=0)    3  0.107817D+01          0.032689          0.075269
 Vib (V=0)    4  0.106417D+01          0.027009          0.062191
 Electronic      0.100000D+01          0.000000          0.000000
 Translational   0.182772D+08          7.261910         16.721166
 Rotational      0.365523D+05          4.562915         10.506499
                           ----------------------------
                           ! Normal Mode     1        !
 --------------------------                            --------------------------
 ! Name  Definition              Value          Relative Weight (%)             !
 --------------------------------------------------------------------------------
 ! R1    R(1,2)                 -0.0032                  0.2                    !
 ! R2    R(1,3)                  0.0                     0.0                    !
 ! R3    R(1,4)                  0.0032                  0.2                    !
 ! R4    R(1,5)                  0.0                     0.0                    !
 ! R5    R(5,6)                  0.0                     0.0                    !
 ! R6    R(5,7)                  0.0                     0.0                    !
 ! R7    R(7,8)                  0.0                     0.0                    !
 ! A1    A(2,1,3)                0.0161                  0.8                    !
 ! A2    A(2,1,4)                0.0                     0.0                    !
 ! A3    A(2,1,5)                0.0174                  0.9                    !
 ! A4    A(3,1,4)               -0.0161                  0.8                    !
 ! A5    A(3,1,5)                0.0                     0.0                    !
 ! A6    A(4,1,5)               -0.0174                  0.9                    !
 ! A7    A(1,5,6)                0.0                     0.0                    !
 ! A8    A(1,5,7)                0.0                     0.0                    !
 ! A9    A(6,5,7)                0.0                     0.0                    !
 ! A10   A(5,7,8)                0.0                     0.0                    !
 ! D1    D(2,1,5,6)              0.3438                 16.8                    !
 ! D2    D(2,1,5,7)              0.3192                 15.6                    !
 ! D3    D(3,1,5,6)              0.3129                 15.3                    !
 ! D4    D(3,1,5,7)              0.2883                 14.1                    !
 ! D5    D(4,1,5,6)              0.3438                 16.8                    !
 ! D6    D(4,1,5,7)              0.3192                 15.6                    !
 ! D7    D(1,5,7,8)              0.0333                  1.6                    !
 ! D8    D(6,5,7,8)              0.0097                  0.5                    !
 --------------------------------------------------------------------------------
                           ----------------------------
                           ! Normal Mode     2        !
 --------------------------                            --------------------------
 ! Name  Definition              Value          Relative Weight (%)             !
 --------------------------------------------------------------------------------
 ! R1    R(1,2)                 -0.0001                  0.0                    !
 ! R2    R(1,3)                 -0.0018                  0.2                    !
 ! R3    R(1,4)                 -0.0001                  0.0                    !
 ! R4    R(1,5)                  0.0001                  0.0                    !
 ! R5    R(5,6)                  0.0025                  0.2                    !
 ! R6    R(5,7)                 -0.0056                  0.6                    !
 ! R7    R(7,8)                 -0.0025                  0.2                    !
 ! A1    A(2,1,3)                0.01                    1.0                    !
 ! A2    A(2,1,4)               -0.0176                  1.8                    !
 ! A3    A(2,1,5)               -0.0647                  6.5                    !
 ! A4    A(3,1,4)                0.01                    1.0                    !
 ! A5    A(3,1,5)                0.1228                 12.3                    !
 ! A6    A(4,1,5)               -0.0647                  6.5                    !
 ! A7    A(1,5,6)                0.1897                 18.9                    !
 ! A8    A(1,5,7)               -0.2237                 22.3                    !
 ! A9    A(6,5,7)                0.034                   3.4                    !
 ! A10   A(5,7,8)                0.0524                  5.2                    !
 ! D1    D(2,1,5,6)              0.0497                  5.0                    !
 ! D2    D(2,1,5,7)              0.0497                  5.0                    !
 ! D3    D(3,1,5,6)              0.0                     0.0                    !
 ! D4    D(3,1,5,7)              0.0                     0.0                    !
 ! D5    D(4,1,5,6)             -0.0497                  5.0                    !
 ! D6    D(4,1,5,7)             -0.0497                  5.0                    !
 ! D7    D(1,5,7,8)              0.0                     0.0                    !
 ! D8    D(6,5,7,8)              0.0                     0.0                    !
 --------------------------------------------------------------------------------
                           ----------------------------
                           ! Normal Mode     3        !
 --------------------------                            --------------------------
 ! Name  Definition              Value          Relative Weight (%)             !
 --------------------------------------------------------------------------------
 ! R1    R(1,2)                 -0.0036                  0.2                    !
 ! R2    R(1,3)                  0.0                     0.0                    !
 ! R3    R(1,4)                  0.0036                  0.2                    !
 ! R4    R(1,5)                  0.0                     0.0                    !
 ! R5    R(5,6)                  0.0                     0.0                    !
 ! R6    R(5,7)                  0.0                     0.0                    !
 ! R7    R(7,8)                  0.0                     0.0                    !
 ! A1    A(2,1,3)                0.0151                  0.8                    !
 ! A2    A(2,1,4)                0.0                     0.0                    !
 ! A3    A(2,1,5)                0.1286                  6.4                    !
 ! A4    A(3,1,4)               -0.0151                  0.8                    !
 ! A5    A(3,1,5)                0.0                     0.0                    !
 ! A6    A(4,1,5)               -0.1286                  6.4                    !
 ! A7    A(1,5,6)                0.0                     0.0                    !
 ! A8    A(1,5,7)                0.0                     0.0                    !
 ! A9    A(6,5,7)                0.0                     0.0                    !
 ! A10   A(5,7,8)                0.0                     0.0                    !
 ! D1    D(2,1,5,6)              0.2135                 10.6                    !
 ! D2    D(2,1,5,7)             -0.1402                  7.0                    !
 ! D3    D(3,1,5,6)              0.1135                  5.6                    !
 ! D4    D(3,1,5,7)             -0.2402                 11.9                    !
 ! D5    D(4,1,5,6)              0.2135                 10.6                    !
 ! D6    D(4,1,5,7)             -0.1402                  7.0                    !
 ! D7    D(1,5,7,8)              0.4984                 24.8                    !
 ! D8    D(6,5,7,8)              0.1597                  7.9                    !
 --------------------------------------------------------------------------------
                           ----------------------------
                           ! Normal Mode     4        !
 --------------------------                            --------------------------
 ! Name  Definition              Value          Relative Weight (%)             !
 --------------------------------------------------------------------------------
 ! R1    R(1,2)                 -0.0009                  0.1                    !
 ! R2    R(1,3)                 -0.0028                  0.3                    !
 ! R3    R(1,4)                 -0.0009                  0.1                    !
 ! R4    R(1,5)                 -0.1331                 11.8                    !
 ! R5    R(5,6)                 -0.0069                  0.6                    !
 ! R6    R(5,7)                  0.0554                  4.9                    !
 ! R7    R(7,8)                 -0.0049                  0.4                    !
 ! A1    A(2,1,3)                0.0067                  0.6                    !
 ! A2    A(2,1,4)               -0.0003                  0.0                    !
 ! A3    A(2,1,5)                0.0189                  1.7                    !
 ! A4    A(3,1,4)                0.0067                  0.6                    !
 ! A5    A(3,1,5)               -0.0494                  4.4                    !
 ! A6    A(4,1,5)                0.0189                  1.7                    !
 ! A7    A(1,5,6)               -0.2051                 18.2                    !
 ! A8    A(1,5,7)               -0.0986                  8.7                    !
 ! A9    A(6,5,7)                0.3037                 26.9                    !
 ! A10   A(5,7,8)                0.1707                 15.1                    !
 ! D1    D(2,1,5,6)             -0.0112                  1.0                    !
 ! D2    D(2,1,5,7)             -0.0112                  1.0                    !
 ! D3    D(3,1,5,6)              0.0                     0.0                    !
 ! D4    D(3,1,5,7)              0.0                     0.0                    !
 ! D5    D(4,1,5,6)              0.0112                  1.0                    !
 ! D6    D(4,1,5,7)              0.0112                  1.0                    !
 ! D7    D(1,5,7,8)              0.0                     0.0                    !
 ! D8    D(6,5,7,8)              0.0                     0.0                    !
 --------------------------------------------------------------------------------
                           ----------------------------
                           ! Normal Mode     5        !
 --------------------------                            --------------------------
 ! Name  Definition              Value          Relative Weight (%)             !
 --------------------------------------------------------------------------------
 ! R1    R(1,2)                 -0.0038                  0.2                    !
 ! R2    R(1,3)                  0.0                     0.0                    !
 ! R3    R(1,4)                  0.0038                  0.2                    !
 ! R4    R(1,5)                  0.0                     0.0                    !
 ! R5    R(5,6)                  0.0                     0.0                    !
 ! R6    R(5,7)                  0.0                     0.0                    !
 ! R7    R(7,8)                  0.0                     0.0                    !
 ! A1    A(2,1,3)                0.0209                  0.9                    !
 ! A2    A(2,1,4)                0.0                     0.0                    !
 ! A3    A(2,1,5)                0.0894                  4.0                    !
 ! A4    A(3,1,4)               -0.0209                  0.9                    !
 ! A5    A(3,1,5)                0.0                     0.0                    !
 ! A6    A(4,1,5)               -0.0894                  4.0                    !
 ! A7    A(1,5,6)                0.0                     0.0                    !
 ! A8    A(1,5,7)                0.0                     0.0                    !
 ! A9    A(6,5,7)                0.0                     0.0                    !
 ! A10   A(5,7,8)                0.0                     0.0                    !
 ! D1    D(2,1,5,6)              0.152                   6.8                    !
 ! D2    D(2,1,5,7)             -0.0876                  3.9                    !
 ! D3    D(3,1,5,6)              0.0697                  3.1                    !
 ! D4    D(3,1,5,7)             -0.1699                  7.6                    !
 ! D5    D(4,1,5,6)              0.152                   6.8                    !
 ! D6    D(4,1,5,7)             -0.0876                  3.9                    !
 ! D7    D(1,5,7,8)             -0.5339                 23.8                    !
 ! D8    D(6,5,7,8)             -0.7634                 34.0                    !
 --------------------------------------------------------------------------------
                           ----------------------------
                           ! Normal Mode     6        !
 --------------------------                            --------------------------
 ! Name  Definition              Value          Relative Weight (%)             !
 --------------------------------------------------------------------------------
 ! R1    R(1,2)                 -0.0037                  0.3                    !
 ! R2    R(1,3)                 -0.0116                  0.8                    !
 ! R3    R(1,4)                 -0.0037                  0.3                    !
 ! R4    R(1,5)                 -0.4593                 33.3                    !
 ! R5    R(5,6)                 -0.05                    3.6                    !
 ! R6    R(5,7)                 -0.2471                 17.9                    !
 ! R7    R(7,8)                  0.0025                  0.2                    !
 ! A1    A(2,1,3)                0.0429                  3.1                    !
 ! A2    A(2,1,4)                0.0041                  0.3                    !
 ! A3    A(2,1,5)               -0.0344                  2.5                    !
 ! A4    A(3,1,4)                0.0429                  3.1                    !
 ! A5    A(3,1,5)               -0.0205                  1.5                    !
 ! A6    A(4,1,5)               -0.0344                  2.5                    !
 ! A7    A(1,5,6)                0.0177                  1.3                    !
 ! A8    A(1,5,7)                0.0815                  5.9                    !
 ! A9    A(6,5,7)               -0.0992                  7.2                    !
 ! A10   A(5,7,8)               -0.1488                 10.8                    !
 ! D1    D(2,1,5,6)              0.0183                  1.3                    !
 ! D2    D(2,1,5,7)              0.0183                  1.3                    !
 ! D3    D(3,1,5,6)              0.0                     0.0                    !
 ! D4    D(3,1,5,7)              0.0                     0.0                    !
 ! D5    D(4,1,5,6)             -0.0183                  1.3                    !
 ! D6    D(4,1,5,7)             -0.0183                  1.3                    !
 ! D7    D(1,5,7,8)              0.0                     0.0                    !
 ! D8    D(6,5,7,8)              0.0                     0.0                    !
 --------------------------------------------------------------------------------
                           ----------------------------
                           ! Normal Mode     7        !
 --------------------------                            --------------------------
 ! Name  Definition              Value          Relative Weight (%)             !
 --------------------------------------------------------------------------------
 ! R1    R(1,2)                 -0.0036                  0.1                    !
 ! R2    R(1,3)                  0.0085                  0.3                    !
 ! R3    R(1,4)                 -0.0036                  0.1                    !
 ! R4    R(1,5)                  0.0955                  3.7                    !
 ! R5    R(5,6)                  0.0262                  1.0                    !
 ! R6    R(5,7)                 -0.1819                  7.1                    !
 ! R7    R(7,8)                 -0.0033                  0.1                    !
 ! A1    A(2,1,3)               -0.0739                  2.9                    !
 ! A2    A(2,1,4)                0.1252                  4.9                    !
 ! A3    A(2,1,5)                0.218                   8.5                    !
 ! A4    A(3,1,4)               -0.0739                  2.9                    !
 ! A5    A(3,1,5)               -0.3993                 15.7                    !
 ! A6    A(4,1,5)                0.218                   8.5                    !
 ! A7    A(1,5,6)                0.0144                  0.6                    !
 ! A8    A(1,5,7)               -0.0632                  2.5                    !
 ! A9    A(6,5,7)                0.0488                  1.9                    !
 ! A10   A(5,7,8)                0.1619                  6.3                    !
 ! D1    D(2,1,5,6)             -0.208                   8.2                    !
 ! D2    D(2,1,5,7)             -0.208                   8.2                    !
 ! D3    D(3,1,5,6)              0.0                     0.0                    !
 ! D4    D(3,1,5,7)              0.0                     0.0                    !
 ! D5    D(4,1,5,6)              0.208                   8.2                    !
 ! D6    D(4,1,5,7)              0.208                   8.2                    !
 ! D7    D(1,5,7,8)              0.0                     0.0                    !
 ! D8    D(6,5,7,8)              0.0                     0.0                    !
 --------------------------------------------------------------------------------
                           ----------------------------
                           ! Normal Mode     8        !
 --------------------------                            --------------------------
 ! Name  Definition              Value          Relative Weight (%)             !
 --------------------------------------------------------------------------------
 ! R1    R(1,2)                  0.0155                  0.5                    !
 ! R2    R(1,3)                  0.0                     0.0                    !
 ! R3    R(1,4)                 -0.0155                  0.5                    !
 ! R4    R(1,5)                  0.0                     0.0                    !
 ! R5    R(5,6)                  0.0                     0.0                    !
 ! R6    R(5,7)                  0.0                     0.0                    !
 ! R7    R(7,8)                  0.0                     0.0                    !
 ! A1    A(2,1,3)               -0.1497                  5.0                    !
 ! A2    A(2,1,4)                0.0                     0.0                    !
 ! A3    A(2,1,5)               -0.4274                 14.3                    !
 ! A4    A(3,1,4)                0.1497                  5.0                    !
 ! A5    A(3,1,5)                0.0                     0.0                    !
 ! A6    A(4,1,5)                0.4274                 14.3                    !
 ! A7    A(1,5,6)                0.0                     0.0                    !
 ! A8    A(1,5,7)                0.0                     0.0                    !
 ! A9    A(6,5,7)                0.0                     0.0                    !
 ! A10   A(5,7,8)                0.0                     0.0                    !
 ! D1    D(2,1,5,6)              0.0807                  2.7                    !
 ! D2    D(2,1,5,7)             -0.2899                  9.7                    !
 ! D3    D(3,1,5,6)              0.5361                 18.0                    !
 ! D4    D(3,1,5,7)              0.1654                  5.5                    !
 ! D5    D(4,1,5,6)              0.0807                  2.7                    !
 ! D6    D(4,1,5,7)             -0.2899                  9.7                    !
 ! D7    D(1,5,7,8)              0.1266                  4.2                    !
 ! D8    D(6,5,7,8)             -0.2285                  7.7                    !
 --------------------------------------------------------------------------------
                           ----------------------------
                           ! Normal Mode     9        !
 --------------------------                            --------------------------
 ! Name  Definition              Value          Relative Weight (%)             !
 --------------------------------------------------------------------------------
 ! R1    R(1,2)                 -0.0059                  0.2                    !
 ! R2    R(1,3)                  0.0029                  0.1                    !
 ! R3    R(1,4)                 -0.0059                  0.2                    !
 ! R4    R(1,5)                 -0.1401                  5.5                    !
 ! R5    R(5,6)                  0.0802                  3.2                    !
 ! R6    R(5,7)                  0.2841                 11.2                    !
 ! R7    R(7,8)                  0.025                   1.0                    !
 ! A1    A(2,1,3)               -0.0249                  1.0                    !
 ! A2    A(2,1,4)                0.1432                  5.6                    !
 ! A3    A(2,1,5)                0.0845                  3.3                    !
 ! A4    A(3,1,4)               -0.0249                  1.0                    !
 ! A5    A(3,1,5)               -0.253                   10.0                   !
 ! A6    A(4,1,5)                0.0845                  3.3                    !
 ! A7    A(1,5,6)                0.1348                  5.3                    !
 ! A8    A(1,5,7)               -0.0723                  2.8                    !
 ! A9    A(6,5,7)               -0.0625                  2.5                    !
 ! A10   A(5,7,8)               -0.5553                 21.9                    !
 ! D1    D(2,1,5,6)             -0.1385                  5.5                    !
 ! D2    D(2,1,5,7)             -0.1385                  5.5                    !
 ! D3    D(3,1,5,6)              0.0                     0.0                    !
 ! D4    D(3,1,5,7)              0.0                     0.0                    !
 ! D5    D(4,1,5,6)              0.1385                  5.5                    !
 ! D6    D(4,1,5,7)              0.1385                  5.5                    !
 ! D7    D(1,5,7,8)              0.0                     0.0                    !
 ! D8    D(6,5,7,8)              0.0                     0.0                    !
 --------------------------------------------------------------------------------
                           ----------------------------
                           ! Normal Mode    10        !
 --------------------------                            --------------------------
 ! Name  Definition              Value          Relative Weight (%)             !
 --------------------------------------------------------------------------------
 ! R1    R(1,2)                 -0.0135                  0.5                    !
 ! R2    R(1,3)                 -0.0011                  0.0                    !
 ! R3    R(1,4)                 -0.0135                  0.5                    !
 ! R4    R(1,5)                 -0.1216                  4.1                    !
 ! R5    R(5,6)                 -0.0572                  1.9                    !
 ! R6    R(5,7)                  0.2347                  8.0                    !
 ! R7    R(7,8)                 -0.0263                  0.9                    !
 ! A1    A(2,1,3)                0.1584                  5.4                    !
 ! A2    A(2,1,4)                0.3358                 11.4                    !
 ! A3    A(2,1,5)               -0.1645                  5.6                    !
 ! A4    A(3,1,4)                0.1584                  5.4                    !
 ! A5    A(3,1,5)               -0.3112                 10.6                    !
 ! A6    A(4,1,5)               -0.1645                  5.6                    !
 ! A7    A(1,5,6)                0.1755                  6.0                    !
 ! A8    A(1,5,7)                0.0015                  0.1                    !
 ! A9    A(6,5,7)               -0.177                   6.0                    !
 ! A10   A(5,7,8)                0.4052                 13.8                    !
 ! D1    D(2,1,5,6)             -0.1061                  3.6                    !
 ! D2    D(2,1,5,7)             -0.1061                  3.6                    !
 ! D3    D(3,1,5,6)              0.0                     0.0                    !
 ! D4    D(3,1,5,7)              0.0                     0.0                    !
 ! D5    D(4,1,5,6)              0.1061                  3.6                    !
 ! D6    D(4,1,5,7)              0.1061                  3.6                    !
 ! D7    D(1,5,7,8)              0.0                     0.0                    !
 ! D8    D(6,5,7,8)              0.0                     0.0                    !
 --------------------------------------------------------------------------------
                           ----------------------------
                           ! Normal Mode    11        !
 --------------------------                            --------------------------
 ! Name  Definition              Value          Relative Weight (%)             !
 --------------------------------------------------------------------------------
 ! R1    R(1,2)                  0.0048                  0.2                    !
 ! R2    R(1,3)                  0.0061                  0.2                    !
 ! R3    R(1,4)                  0.0048                  0.2                    !
 ! R4    R(1,5)                 -0.2895                  9.2                    !
 ! R5    R(5,6)                 -0.0467                  1.5                    !
 ! R6    R(5,7)                  0.1738                  5.5                    !
 ! R7    R(7,8)                 -0.0151                  0.5                    !
 ! A1    A(2,1,3)               -0.3526                 11.2                    !
 ! A2    A(2,1,4)               -0.306                   9.7                    !
 ! A3    A(2,1,5)                0.3739                 11.9                    !
 ! A4    A(3,1,4)               -0.3526                 11.2                    !
 ! A5    A(3,1,5)                0.2538                  8.1                    !
 ! A6    A(4,1,5)                0.3739                 11.9                    !
 ! A7    A(1,5,6)                0.1238                  3.9                    !
 ! A8    A(1,5,7)               -0.0055                  0.2                    !
 ! A9    A(6,5,7)               -0.1183                  3.8                    !
 ! A10   A(5,7,8)                0.197                   6.3                    !
 ! D1    D(2,1,5,6)             -0.0384                  1.2                    !
 ! D2    D(2,1,5,7)             -0.0384                  1.2                    !
 ! D3    D(3,1,5,6)              0.0                     0.0                    !
 ! D4    D(3,1,5,7)              0.0                     0.0                    !
 ! D5    D(4,1,5,6)              0.0384                  1.2                    !
 ! D6    D(4,1,5,7)              0.0384                  1.2                    !
 ! D7    D(1,5,7,8)              0.0                     0.0                    !
 ! D8    D(6,5,7,8)              0.0                     0.0                    !
 --------------------------------------------------------------------------------
                           ----------------------------
                           ! Normal Mode    12        !
 --------------------------                            --------------------------
 ! Name  Definition              Value          Relative Weight (%)             !
 --------------------------------------------------------------------------------
 ! R1    R(1,2)                 -0.0099                  0.3                    !
 ! R2    R(1,3)                  0.0134                  0.4                    !
 ! R3    R(1,4)                 -0.0099                  0.3                    !
 ! R4    R(1,5)                  0.0272                  0.9                    !
 ! R5    R(5,6)                 -0.0281                  0.9                    !
 ! R6    R(5,7)                 -0.0294                  0.9                    !
 ! R7    R(7,8)                  0.0027                  0.1                    !
 ! A1    A(2,1,3)               -0.3397                 10.6                    !
 ! A2    A(2,1,4)                0.6236                 19.5                    !
 ! A3    A(2,1,5)               -0.0669                  2.1                    !
 ! A4    A(3,1,4)               -0.3397                 10.6                    !
 ! A5    A(3,1,5)                0.1911                  6.0                    !
 ! A6    A(4,1,5)               -0.0669                  2.1                    !
 ! A7    A(1,5,6)               -0.005                   0.2                    !
 ! A8    A(1,5,7)               -0.024                   0.7                    !
 ! A9    A(6,5,7)                0.029                   0.9                    !
 ! A10   A(5,7,8)               -0.0327                  1.0                    !
 ! D1    D(2,1,5,6)             -0.3409                 10.6                    !
 ! D2    D(2,1,5,7)             -0.3409                 10.6                    !
 ! D3    D(3,1,5,6)              0.0                     0.0                    !
 ! D4    D(3,1,5,7)              0.0                     0.0                    !
 ! D5    D(4,1,5,6)              0.3409                 10.6                    !
 ! D6    D(4,1,5,7)              0.3409                 10.6                    !
 ! D7    D(1,5,7,8)              0.0                     0.0                    !
 ! D8    D(6,5,7,8)              0.0                     0.0                    !
 --------------------------------------------------------------------------------
                           ----------------------------
                           ! Normal Mode    13        !
 --------------------------                            --------------------------
 ! Name  Definition              Value          Relative Weight (%)             !
 --------------------------------------------------------------------------------
 ! R1    R(1,2)                  0.0137                  0.4                    !
 ! R2    R(1,3)                  0.0                     0.0                    !
 ! R3    R(1,4)                 -0.0137                  0.4                    !
 ! R4    R(1,5)                  0.0                     0.0                    !
 ! R5    R(5,6)                  0.0                     0.0                    !
 ! R6    R(5,7)                  0.0                     0.0                    !
 ! R7    R(7,8)                  0.0                     0.0                    !
 ! A1    A(2,1,3)               -0.5598                 18.3                    !
 ! A2    A(2,1,4)                0.0                     0.0                    !
 ! A3    A(2,1,5)                0.1469                  4.8                    !
 ! A4    A(3,1,4)                0.5598                 18.3                    !
 ! A5    A(3,1,5)                0.0                     0.0                    !
 ! A6    A(4,1,5)               -0.1469                  4.8                    !
 ! A7    A(1,5,6)                0.0                     0.0                    !
 ! A8    A(1,5,7)                0.0                     0.0                    !
 ! A9    A(6,5,7)                0.0                     0.0                    !
 ! A10   A(5,7,8)                0.0                     0.0                    !
 ! D1    D(2,1,5,6)             -0.2001                  6.6                    !
 ! D2    D(2,1,5,7)             -0.1873                  6.1                    !
 ! D3    D(3,1,5,6)              0.3998                 13.1                    !
 ! D4    D(3,1,5,7)              0.4126                 13.5                    !
 ! D5    D(4,1,5,6)             -0.2001                  6.6                    !
 ! D6    D(4,1,5,7)             -0.1873                  6.1                    !
 ! D7    D(1,5,7,8)              0.0056                  0.2                    !
 ! D8    D(6,5,7,8)              0.0179                  0.6                    !
 --------------------------------------------------------------------------------
                           ----------------------------
                           ! Normal Mode    14        !
 --------------------------                            --------------------------
 ! Name  Definition              Value          Relative Weight (%)             !
 --------------------------------------------------------------------------------
 ! R1    R(1,2)                 -0.0094                  0.2                    !
 ! R2    R(1,3)                  0.0267                  0.6                    !
 ! R3    R(1,4)                 -0.0094                  0.2                    !
 ! R4    R(1,5)                  0.5164                 11.4                    !
 ! R5    R(5,6)                 -1.135                  25.0                    !
 ! R6    R(5,7)                  0.3708                  8.2                    !
 ! R7    R(7,8)                  0.024                   0.5                    !
 ! A1    A(2,1,3)                0.0883                  1.9                    !
 ! A2    A(2,1,4)               -0.0922                  2.0                    !
 ! A3    A(2,1,5)                0.137                   3.0                    !
 ! A4    A(3,1,4)                0.0883                  1.9                    !
 ! A5    A(3,1,5)               -0.3488                  7.7                    !
 ! A6    A(4,1,5)                0.137                   3.0                    !
 ! A7    A(1,5,6)                0.1709                  3.8                    !
 ! A8    A(1,5,7)               -0.4592                 10.1                    !
 ! A9    A(6,5,7)                0.2883                  6.4                    !
 ! A10   A(5,7,8)               -0.5327                 11.7                    !
 ! D1    D(2,1,5,6)             -0.0262                  0.6                    !
 ! D2    D(2,1,5,7)             -0.0262                  0.6                    !
 ! D3    D(3,1,5,6)              0.0                     0.0                    !
 ! D4    D(3,1,5,7)              0.0                     0.0                    !
 ! D5    D(4,1,5,6)              0.0262                  0.6                    !
 ! D6    D(4,1,5,7)              0.0262                  0.6                    !
 ! D7    D(1,5,7,8)              0.0                     0.0                    !
 ! D8    D(6,5,7,8)              0.0                     0.0                    !
 --------------------------------------------------------------------------------
                           ----------------------------
                           ! Normal Mode    15        !
 --------------------------                            --------------------------
 ! Name  Definition              Value          Relative Weight (%)             !
 --------------------------------------------------------------------------------
 ! R1    R(1,2)                  0.6675                 34.2                    !
 ! R2    R(1,3)                  0.4138                 21.2                    !
 ! R3    R(1,4)                  0.6675                 34.2                    !
 ! R4    R(1,5)                 -0.0496                  2.5                    !
 ! R5    R(5,6)                 -0.0005                  0.0                    !
 ! R6    R(5,7)                  0.0017                  0.1                    !
 ! R7    R(7,8)                 -0.0031                  0.2                    !
 ! A1    A(2,1,3)               -0.0154                  0.8                    !
 ! A2    A(2,1,4)               -0.0241                  1.2                    !
 ! A3    A(2,1,5)                0.0131                  0.7                    !
 ! A4    A(3,1,4)               -0.0154                  0.8                    !
 ! A5    A(3,1,5)                0.0276                  1.4                    !
 ! A6    A(4,1,5)                0.0131                  0.7                    !
 ! A7    A(1,5,6)               -0.0052                  0.3                    !
 ! A8    A(1,5,7)                0.0065                  0.3                    !
 ! A9    A(6,5,7)               -0.0013                  0.1                    !
 ! A10   A(5,7,8)                0.001                   0.0                    !
 ! D1    D(2,1,5,6)              0.0069                  0.4                    !
 ! D2    D(2,1,5,7)              0.0069                  0.4                    !
 ! D3    D(3,1,5,6)              0.0                     0.0                    !
 ! D4    D(3,1,5,7)              0.0                     0.0                    !
 ! D5    D(4,1,5,6)             -0.0069                  0.4                    !
 ! D6    D(4,1,5,7)             -0.0069                  0.4                    !
 ! D7    D(1,5,7,8)              0.0                     0.0                    !
 ! D8    D(6,5,7,8)              0.0                     0.0                    !
 --------------------------------------------------------------------------------
                           ----------------------------
                           ! Normal Mode    16        !
 --------------------------                            --------------------------
 ! Name  Definition              Value          Relative Weight (%)             !
 --------------------------------------------------------------------------------
 ! R1    R(1,2)                  0.7779                 40.2                    !
 ! R2    R(1,3)                  0.0                     0.0                    !
 ! R3    R(1,4)                 -0.7779                 40.2                    !
 ! R4    R(1,5)                  0.0                     0.0                    !
 ! R5    R(5,6)                  0.0                     0.0                    !
 ! R6    R(5,7)                  0.0                     0.0                    !
 ! R7    R(7,8)                  0.0                     0.0                    !
 ! A1    A(2,1,3)               -0.0407                  2.1                    !
 ! A2    A(2,1,4)                0.0                     0.0                    !
 ! A3    A(2,1,5)               -0.0387                  2.0                    !
 ! A4    A(3,1,4)                0.0407                  2.1                    !
 ! A5    A(3,1,5)                0.0                     0.0                    !
 ! A6    A(4,1,5)                0.0387                  2.0                    !
 ! A7    A(1,5,6)                0.0                     0.0                    !
 ! A8    A(1,5,7)                0.0                     0.0                    !
 ! A9    A(6,5,7)                0.0                     0.0                    !
 ! A10   A(5,7,8)                0.0                     0.0                    !
 ! D1    D(2,1,5,6)             -0.0018                  0.1                    !
 ! D2    D(2,1,5,7)             -0.0369                  1.9                    !
 ! D3    D(3,1,5,6)              0.073                   3.8                    !
[...]
     3            5            5            5            7            7
     4            7            6            7            8            8
 B Matrix in FormBX:
                 1             2             3             4             5 
      1  -0.105790D+00  0.905734D+00 -0.105790D+00 -0.701952D+00  0.162043D+00
      2   0.583260D+00 -0.423847D+00  0.583260D+00 -0.712225D+00 -0.986784D+00
      3   0.805367D+00  0.000000D+00 -0.805367D+00  0.000000D+00  0.000000D+00
      4   0.105790D+00 -0.905734D+00  0.105790D+00  0.701952D+00 -0.162043D+00
      5  -0.583260D+00  0.423847D+00 -0.583260D+00  0.712225D+00  0.986784D+00
      6  -0.805367D+00  0.000000D+00  0.805367D+00  0.000000D+00  0.000000D+00
      7   0.000000D+00  0.000000D+00  0.000000D+00  0.000000D+00  0.000000D+00
      8   0.000000D+00  0.000000D+00  0.000000D+00  0.000000D+00  0.000000D+00
      9   0.000000D+00  0.000000D+00  0.000000D+00  0.000000D+00  0.000000D+00
     10   0.000000D+00  0.000000D+00  0.000000D+00  0.000000D+00  0.000000D+00
     11   0.000000D+00  0.000000D+00  0.000000D+00  0.000000D+00  0.000000D+00
     12   0.000000D+00  0.000000D+00  0.000000D+00  0.000000D+00  0.000000D+00
                 6             7             8             9            10 
      1  -0.919463D+00 -0.630408D+00  0.447751D+00 -0.695275D-01 -0.379804D+00
      2   0.393176D+00 -0.776264D+00 -0.115239D+00  0.383332D+00 -0.264121D+00
      3   0.000000D+00  0.000000D+00  0.142273D+00 -0.286749D+00  0.141391D+00
      4   0.919463D+00  0.630408D+00 -0.553752D+00  0.139055D+00  0.508741D+00
      5  -0.393176D+00  0.776264D+00 -0.111279D+00 -0.766665D+00  0.137043D+00
      6   0.000000D+00  0.000000D+00 -0.558906D+00  0.000000D+00 -0.442152D+00
      7   0.000000D+00  0.000000D+00  0.106002D+00 -0.695275D-01 -0.128937D+00
      8   0.000000D+00  0.000000D+00  0.226518D+00  0.383332D+00  0.127077D+00
      9   0.000000D+00  0.000000D+00  0.416633D+00  0.286749D+00  0.300761D+00
     10   0.000000D+00  0.000000D+00  0.000000D+00  0.000000D+00  0.000000D+00
     11   0.000000D+00  0.000000D+00  0.000000D+00  0.000000D+00  0.000000D+00
     12   0.000000D+00  0.000000D+00  0.000000D+00  0.000000D+00  0.000000D+00
                11            12            13            14            15 
      1   0.106002D+00 -0.205961D+00 -0.379804D+00  0.250021D+00 -0.250021D+00
      2   0.226518D+00 -0.440125D+00 -0.264121D+00 -0.246415D+00  0.246415D+00
      3  -0.416633D+00  0.000000D+00 -0.141391D+00  0.000000D+00  0.000000D+00
      4  -0.553752D+00 -0.440600D-01  0.508741D+00 -0.681484D+00  0.967648D-01
      5  -0.111279D+00  0.686540D+00  0.137043D+00  0.175563D+00 -0.604814D+00
      6   0.558906D+00  0.000000D+00  0.442152D+00  0.000000D+00  0.000000D+00
      7   0.447751D+00  0.250021D+00 -0.128937D+00  0.431463D+00  0.153256D+00
      8  -0.115239D+00 -0.246415D+00  0.127077D+00  0.708521D-01  0.358399D+00
      9  -0.142273D+00  0.000000D+00 -0.300761D+00  0.000000D+00  0.000000D+00
     10   0.000000D+00  0.000000D+00  0.000000D+00  0.000000D+00  0.000000D+00
     11   0.000000D+00  0.000000D+00  0.000000D+00  0.000000D+00  0.000000D+00
     12   0.000000D+00  0.000000D+00  0.000000D+00  0.000000D+00  0.000000D+00
                16            17            18            19            20 
      1  -0.431463D+00 -0.153256D+00  0.314021D+00  0.314021D+00  0.000000D+00
      2  -0.708521D-01 -0.358399D+00 -0.309491D+00 -0.309491D+00  0.000000D+00
      3   0.000000D+00  0.000000D+00  0.265387D+00  0.265387D+00 -0.515520D+00
      4   0.584719D+00 -0.269276D+00 -0.391763D+00 -0.391763D+00  0.000000D+00
      5   0.429251D+00  0.701539D+00  0.386112D+00  0.386112D+00  0.000000D+00
      6   0.000000D+00  0.000000D+00 -0.751920D-01 -0.468884D+00  0.895770D+00
      7  -0.153256D+00  0.422532D+00  0.777422D-01  0.777422D-01  0.000000D+00
      8  -0.358399D+00 -0.343141D+00 -0.766209D-01 -0.766209D-01  0.000000D+00
      9   0.000000D+00  0.000000D+00 -0.731279D+00  0.622243D+00 -0.921333D+00
     10   0.000000D+00  0.000000D+00  0.000000D+00  0.000000D+00  0.000000D+00
     11   0.000000D+00  0.000000D+00  0.000000D+00  0.000000D+00  0.000000D+00
     12   0.000000D+00  0.000000D+00  0.541083D+00 -0.418745D+00  0.541083D+00
                21            22            23            24            25 
      1   0.000000D+00 -0.314021D+00 -0.314021D+00  0.000000D+00  0.000000D+00
      2   0.000000D+00  0.309491D+00  0.309491D+00  0.000000D+00  0.000000D+00
      3  -0.515520D+00  0.265387D+00  0.265387D+00  0.377119D+00 -0.518305D+00
      4   0.000000D+00  0.391763D+00  0.391763D+00  0.000000D+00  0.000000D+00
      5   0.000000D+00 -0.386112D+00 -0.386112D+00  0.000000D+00  0.000000D+00
      6   0.502077D+00 -0.751920D-01 -0.468884D+00 -0.418883D+00  0.877657D+00
      7   0.000000D+00 -0.777422D-01 -0.777422D-01  0.000000D+00  0.000000D+00
      8   0.000000D+00  0.766209D-01  0.766209D-01  0.000000D+00  0.000000D+00
      9   0.432188D+00 -0.731279D+00  0.622243D+00 -0.524283D+00 -0.925400D+00
     10   0.000000D+00  0.000000D+00  0.000000D+00  0.000000D+00  0.000000D+00
     11   0.000000D+00  0.000000D+00  0.000000D+00  0.000000D+00  0.000000D+00
     12  -0.418745D+00  0.541083D+00 -0.418745D+00  0.566047D+00  0.566047D+00
 Iteration  1 RMS(Cart)=  0.00029390 RMS(Int)=  0.00000008
 Iteration  2 RMS(Cart)=  0.00000008 RMS(Int)=  0.00000002
 Input Coordinates in SymCor: 
                 1             2             3             4             5 
      1  -0.199957D+01 -0.178058D+01 -0.386333D+01 -0.178058D+01 -0.307070D-03
      2  -0.173543D+01 -0.294065D+01 -0.862882D+00 -0.294065D+01  0.293542D+00
      3   0.000000D+00 -0.166511D+01  0.000000D+00  0.166511D+01  0.000000D+00
                 6             7             8 
      1  -0.370233D+00  0.235884D+01  0.351605D+01
      2   0.255040D+01 -0.715583D+00  0.711207D+00
      3   0.000000D+00  0.000000D+00  0.000000D+00
 Symmetrized Coordinates in SymCor: 
                 1             2             3             4             5 
      1   0.199957D+01  0.178058D+01  0.386333D+01  0.178058D+01  0.307070D-03
      2  -0.173543D+01 -0.294065D+01 -0.862883D+00 -0.294065D+01  0.293542D+00
      3   0.000000D+00  0.166511D+01  0.000000D+00 -0.166511D+01  0.000000D+00
                 6             7             8 
      1   0.370233D+00 -0.235884D+01 -0.351605D+01
      2   0.255040D+01 -0.715582D+00  0.711208D+00
      3   0.000000D+00  0.000000D+00  0.000000D+00
 Final Coordinates in SymCor: 
                 1             2             3             4             5 
      1  -0.199957D+01 -0.178058D+01 -0.386333D+01 -0.178058D+01 -0.307070D-03
      2  -0.173543D+01 -0.294065D+01 -0.862882D+00 -0.294065D+01  0.293542D+00
      3   0.000000D+00 -0.166511D+01  0.000000D+00  0.166511D+01  0.000000D+00
                 6             7             8 
      1  -0.370233D+00  0.235884D+01  0.351605D+01
      2   0.255040D+01 -0.715583D+00  0.711207D+00
      3   0.000000D+00  0.000000D+00  0.000000D+00
 ClnCor:  largest displacement from symmetrization is 7.95D-10 for atom     4.
 Variable       Old X    -DE/DX   Delta X   Delta X   Delta X     New X
                                 (Linear)    (Quad)   (Total)
    R1        2.06723  -0.00002   0.00000  -0.00009  -0.00009   2.06715
    R2        2.05790  -0.00001   0.00000  -0.00000  -0.00000   2.05790
    R3        2.06723  -0.00002   0.00000  -0.00009  -0.00009   2.06715
    R4        2.84866  -0.00007   0.00000  -0.00018  -0.00018   2.84847
    R5        2.28706  -0.00004   0.00000  -0.00009  -0.00009   2.28698
    R6        2.56548   0.00010   0.00000   0.00044   0.00044   2.56591
    R7        1.83717  -0.00006   0.00000  -0.00009  -0.00009   1.83708
    A1        1.92094   0.00003   0.00000   0.00013   0.00013   1.92107
    A2        1.87259   0.00004   0.00000   0.00049   0.00049   1.87308
    A3        1.91894  -0.00003   0.00000  -0.00022  -0.00022   1.91871
    A4        1.92094   0.00003   0.00000   0.00013   0.00013   1.92107
    A5        1.91124  -0.00005   0.00000  -0.00028  -0.00028   1.91096
    A6        1.91894  -0.00003   0.00000  -0.00022  -0.00022   1.91871
    A7        2.20070   0.00006   0.00000   0.00041   0.00041   2.20110
    A8        1.94485  -0.00005   0.00000  -0.00023  -0.00023   1.94462
    A9        2.13764  -0.00001   0.00000  -0.00018  -0.00018   2.13746
   A10        1.84879  -0.00012   0.00000  -0.00075  -0.00075   1.84805
    D1        2.11263  -0.00001   0.00000  -0.00016  -0.00016   2.11246
    D2       -1.02897  -0.00001   0.00000  -0.00016  -0.00016  -1.02913
    D3        0.00000  -0.00000   0.00000   0.00000   0.00000   0.00000
    D4        3.14159   0.00000   0.00000   0.00000   0.00000   3.14159
    D5       -2.11263   0.00001   0.00000   0.00016   0.00016  -2.11246
    D6        1.02897   0.00001   0.00000   0.00016   0.00016   1.02913
    D7        3.14159  -0.00000   0.00000   0.00000   0.00000   3.14159
    D8        0.00000   0.00000   0.00000   0.00000   0.00000   0.00000
         Item               Value     Threshold  Converged?
 Maximum Force            0.000119     0.000450     YES
 RMS     Force            0.000045     0.000300     YES
 Maximum Displacement     0.000977     0.001800     YES
 RMS     Displacement     0.000294     0.001200     YES
 Predicted change in Energy=-1.300871D-07
 Optimization completed.
    -- Stationary point found.
                           ----------------------------
                           !   Optimized Parameters   !
                           ! (Angstroms and Degrees)  !
 --------------------------                            --------------------------
 ! Name  Definition              Value          Derivative Info.                !
 --------------------------------------------------------------------------------
 ! R1    R(1,2)                  1.0939         -DE/DX =    0.0                 !
 ! R2    R(1,3)                  1.089          -DE/DX =    0.0                 !
 ! R3    R(1,4)                  1.0939         -DE/DX =    0.0                 !
 ! R4    R(1,5)                  1.5074         -DE/DX =   -0.0001              !
 ! R5    R(5,6)                  1.2103         -DE/DX =    0.0                 !
 ! R6    R(5,7)                  1.3576         -DE/DX =    0.0001              !
 ! R7    R(7,8)                  0.9722         -DE/DX =   -0.0001              !
 ! A1    A(2,1,3)              110.0616         -DE/DX =    0.0                 !
 ! A2    A(2,1,4)              107.2914         -DE/DX =    0.0                 !
 ! A3    A(2,1,5)              109.9471         -DE/DX =    0.0                 !
 ! A4    A(3,1,4)              110.0616         -DE/DX =    0.0                 !
 ! A5    A(3,1,5)              109.5061         -DE/DX =    0.0                 !
 ! A6    A(4,1,5)              109.9471         -DE/DX =    0.0                 !
 ! A7    A(1,5,6)              126.0907         -DE/DX =    0.0001              !
 ! A8    A(1,5,7)              111.4316         -DE/DX =   -0.0001              !
 ! A9    A(6,5,7)              122.4778         -DE/DX =    0.0                 !
 ! A10   A(5,7,8)              105.928          -DE/DX =   -0.0001              !
 ! D1    D(2,1,5,6)            121.0446         -DE/DX =    0.0                 !
 ! D2    D(2,1,5,7)            -58.9554         -DE/DX =    0.0                 !
 ! D3    D(3,1,5,6)              0.0            -DE/DX =    0.0                 !
 ! D4    D(3,1,5,7)            180.0            -DE/DX =    0.0                 !
 ! D5    D(4,1,5,6)           -121.0446         -DE/DX =    0.0                 !
 ! D6    D(4,1,5,7)             58.9554         -DE/DX =    0.0                 !
 ! D7    D(1,5,7,8)            180.0            -DE/DX =    0.0                 !
 ! D8    D(6,5,7,8)              0.0            -DE/DX =    0.0                 !
 --------------------------------------------------------------------------------
 GradGradGradGradGradGradGradGradGradGradGradGradGradGradGradGradGradGrad

 Leave Link  103 at Sat Aug 10 16:32:51 2019, MaxMem=  4294967296 cpu:               0.2 elap:               0.0

 ----------------------------------------------------------------------

 Electric dipole moment (input orientation):
 (Debye = 10**-18 statcoulomb cm , SI units = C m)
                  (au)            (Debye)         (10**-30 SI)
   Tot        0.632065D+00      0.160655D+01      0.535887D+01
   x          0.160745D+00      0.408572D+00      0.136285D+01
   y         -0.611283D+00     -0.155373D+01     -0.518267D+01
   z          0.000000D+00      0.000000D+00      0.000000D+00

 Dipole polarizability, Alpha (input orientation).
 (esu units = cm**3 , SI units = C**2 m**2 J**-1)
 Alpha(0;0):
               (au)            (10**-24 esu)      (10**-40 SI)
   iso        0.267352D+02      0.396175D+01      0.440804D+01
   aniso      0.117980D+02      0.174829D+01      0.194523D+01
   xx         0.302005D+02      0.447526D+01      0.497939D+01
   yx         0.841882D+00      0.124754D+00      0.138808D+00
   yy         0.310592D+02      0.460250D+01      0.512097D+01
   zx         0.000000D+00      0.000000D+00      0.000000D+00
   zy         0.000000D+00      0.000000D+00      0.000000D+00
   zz         0.189459D+02      0.280750D+01      0.312376D+01

 ----------------------------------------------------------------------

 Dipole orientation:
     6         -2.29708173         -0.60404677          1.16965318
     1         -1.96568308         -2.23838470          2.39136286
     1         -3.82590775         -1.00607096         -0.14792696
     1         -2.81249813          0.98190136          2.39136286
     6          0.07222243          0.01899180         -0.28398614
     8          0.28066890          0.07380545         -2.56087181
     8          2.03042965          0.53392722          1.29143031
     1          3.46445425          0.91102218          0.20673240

 Electric dipole moment (dipole orientation):
 (Debye = 10**-18 statcoulomb cm , SI units = C m)
                  (au)            (Debye)         (10**-30 SI)
   Tot        0.632065D+00      0.160655D+01      0.535887D+01
   x          0.000000D+00      0.000000D+00      0.000000D+00
   y          0.000000D+00      0.000000D+00      0.000000D+00
   z          0.632065D+00      0.160655D+01      0.535887D+01

 Dipole polarizability, Alpha (dipole orientation).
 (esu units = cm**3 , SI units = C**2 m**2 J**-1)
 Alpha(0;0):
               (au)            (10**-24 esu)      (10**-40 SI)
   iso        0.267352D+02      0.396175D+01      0.440804D+01
   aniso      0.117980D+02      0.174829D+01      0.194523D+01
   xx         0.299119D+02      0.443249D+01      0.493181D+01
   yx         0.288364D+01      0.427311D+00      0.475448D+00
   yy         0.197042D+02      0.291986D+01      0.324879D+01
   zx        -0.913140D+00     -0.135313D+00     -0.150556D+00
   zy        -0.240122D+00     -0.355824D-01     -0.395907D-01
   zz         0.305896D+02      0.453290D+01      0.504354D+01

 ----------------------------------------------------------------------

 Test job not archived.
 1\1\NSC-N1703\Freq\RB3LYP\6-31G(d,p)\C2H4O2\X_KJEJO\10-Aug-2019\0\\# f
 req(intmodes) iop(1/33=3) b3lyp/6-31g(d,p) geom=connectivity iop(7/75=
 -1)\\name\\0,1\C,-1.058153,-0.918251,0.\H,-0.942426,-1.556299,-0.88101
 8\H,-2.044491,-0.456684,0.\H,-0.942426,-1.556299,0.881018\C,0.,0.15538
 8,0.\O,-0.196115,1.349655,0.\O,1.248256,-0.378384,0.\H,1.861132,0.3762
 91,0.\\Version=ES64L-G16RevB.01\State=1-A'\HF=-229.0914797\RMSD=7.006e
 -09\RMSF=6.887e-05\ZeroPoint=0.0619907\Thermal=0.0665412\Dipole=0.1607
 446,-0.611283,0.\DipoleDeriv=-0.0884116,-0.1437404,0.,-0.1674414,-0.15
 90635,0.,0.,0.,0.0577788,0.0538082,-0.0043492,0.040192,-0.0039371,0.03
 51647,-0.0645419,0.0126849,-0.0789917,-0.0089532,-0.0462926,0.0244148,
 0.,0.0585137,0.0339025,0.,0.,0.,0.0808474,0.0538082,-0.0043492,-0.0401
 92,-0.0039371,0.0351647,0.0645419,-0.0126849,0.0789917,-0.0089532,1.59
 23784,-0.1189019,0.,-0.2372056,1.4354797,0.,0.,0.,0.2643706,-0.6727017
 ,-0.0622523,0.,0.1996428,-1.083641,0.,0.,0.,-0.3427601,-1.2064085,0.33
 30436,0.,0.2295415,-0.4723488,0.,0.,0.,-0.3840264,0.3138197,-0.0238653
 ,0.,-0.0751768,0.1753417,0.,0.,0.,0.3416961\Polar=30.2005217,0.8418817
 ,31.059226,0.,0.,18.9459347\Quadrupole=2.3815848,-2.6445066,0.2629218,
 2.7584865,0.,0.\PG=CS [SG(C2H2O2),X(H2)]\NImag=0\\0.56837610,-0.067026
 47,0.53460127,0.,0.,0.54184603,-0.05287479,0.01692493,0.02309004,0.050
 40027,0.01696338,-0.13444340,-0.13048772,-0.01694225,0.14659128,0.0236
 2132,-0.12889756,-0.22076588,-0.02664928,0.13982014,0.23827211,-0.2779
 1128,0.10630472,0.,-0.00018167,-0.00032817,0.00016325,0.29990160,0.113
 98265,-0.10197054,0.,0.01546233,-0.00713376,0.00238606,-0.11690357,0.1
 0596771,0.,0.,-0.04902808,0.02481511,-0.00961501,0.00173186,0.,0.,0.04
 683898,-0.05287479,0.01692493,-0.02309004,-0.00023884,-0.00187032,0.00
 285527,-0.00018167,0.01546233,-0.02481511,0.05040027,0.01696338,-0.134
 44340,0.13048772,-0.00187032,0.01268933,-0.01623285,-0.00032817,-0.007
 13376,0.00961501,-0.01694225,0.14659128,-0.02362132,0.12889756,-0.2207
 6588,-0.00285527,0.01623285,-0.02082353,-0.00016325,-0.00238606,0.0017
 3186,0.02664928,-0.13982014,0.23827211,-0.15200745,-0.05980126,0.,0.00
 589151,0.00602628,0.00055496,-0.02103861,-0.02349028,0.,0.00589151,0.0
 0602628,-0.00055496,0.60025493,-0.05746784,-0.13167858,0.,-0.01138429,
 -0.01657979,0.00079863,0.01558914,0.01231432,0.,-0.01138429,-0.0165797
 9,-0.00079863,-0.03616362,1.02128345,0.,0.,-0.09207937,-0.02382980,-0.
 02144087,0.00213636,0.,0.,-0.00296582,0.02382980,0.02144087,0.00213636
 ,0.,0.,0.22745429,0.01341699,-0.02346500,0.,-0.00181904,-0.00435026,-0
 .00009534,0.00397093,0.00174767,0.,-0.00181904,-0.00435026,0.00009534,
 -0.13279974,0.08695803,0.,0.12773714,0.00055716,-0.04378745,0.,-0.0029
 3349,-0.00250541,0.00170004,0.00016914,0.00133348,0.,-0.00293349,-0.00
 250541,-0.00170004,0.07743014,-0.74920197,0.,-0.13567795,0.84868565,0.
 ,0.,0.02576918,0.00302608,0.00322717,-0.00098592,0.,0.,-0.00051918,-0.
 00302608,-0.00322717,-0.00098592,0.,0.,-0.07643996,0.,0.,0.02994750,-0
 .04086955,0.00422278,0.,-0.00165548,0.00033035,-0.00023811,-0.00338166
 ,-0.00472240,0.,-0.00165548,0.00033035,0.00023811,-0.26071719,0.057426
 03,0.,-0.01978512,0.06348417,0.,0.53583445,-0.02662335,0.01084122,0.,0
 .00050008,0.00155003,0.00043699,-0.00491578,-0.00384129,0.,0.00050008,
 0.00155003,-0.00043699,0.02292257,-0.13866270,0.,0.07899917,-0.0461870
 5,0.,0.11543913,0.50011063,0.,0.,0.01079756,0.00184008,0.00157225,0.00
 024406,0.,0.,0.00129978,-0.00184008,-0.00157225,0.00024406,0.,0.,-0.06
 485615,0.,0.,0.02992482,0.,0.,0.03999471,-0.00525523,0.00591539,0.,0.0
 0047804,0.00017098,-0.00021207,-0.00117763,-0.00153873,0.,0.00047804,0
 .00017098,0.00021207,-0.04547495,-0.04357316,0.,0.01109789,-0.00009567
 ,0.,-0.20776997,-0.18682191,0.,0.24762381,0.00265109,0.00088090,0.,0.0
 0024301,-0.00016828,-0.00001145,0.00041269,0.00046385,0.,0.00024301,-0
 .00016828,0.00001145,0.00704989,0.01910506,0.,0.00013860,-0.00583183,0
 .,-0.23651040,-0.32536088,0.,0.22577212,0.31107946,0.,0.,0.00422645,0.
 00056303,0.00069118,0.00019093,0.,0.,0.00091061,-0.00056303,-0.0006911
 8,0.00019093,0.,0.,0.00461429,0.,0.,-0.00671053,0.,0.,-0.01764884,0.,0
 .,0.01422616\\-0.00004106,0.00010061,0.,-0.00001087,-0.00004071,0.0000
 0067,-0.00002129,-0.00002995,0.,-0.00001087,-0.00004071,-0.00000067,0.
 00019265,-0.00012502,0.,-0.00003861,0.00003675,0.,-0.00015811,0.000093
 50,0.,0.00008817,0.00000554,0.\\\@


 IT'S WHAT A FELLER THINKS HE KNOWS THAT HURTS HIM...
                    ------
           KIN HUBBARD
 Job cpu time:       0 days  0 hours  1 minutes 23.0 seconds.
 Elapsed time:       0 days  0 hours  0 minutes  6.2 seconds.
 File lengths (MBytes):  RWF=     10 Int=      0 D2E=      0 Chk=      8 Scr=      1
 Normal termination of Gaussian 16 at Sat Aug 10 16:32:51 2019.
