 Entering Gaussian System, Link 0=/software/sse/easybuild/prefix/software/Gaussian/16.B.01-avx2-nsc1-bdist/g16/g16.orig
 Input=freq-lm.wrap
 Output=freq-lm.log
 Initial command:
 /software/sse/easybuild/prefix/software/Gaussian/16.B.01-avx2-nsc1-bdist/g16/l1.exe "/scratch/local/Gau-104778.inp" -scrdir="/scratch/local/"
 Default is to use a total of  16 processors:
                               16 via shared-memory
                                1 via Linda
 Entering Link 1 = /software/sse/easybuild/prefix/software/Gaussian/16.B.01-avx2-nsc1-bdist/g16/l1.exe PID=    104784.
  
 Copyright (c) 1988-2017, Gaussian, Inc.  All Rights Reserved.
  
 This is part of the Gaussian(R) 16 program.  It is based on
 the Gaussian(R) 09 system (copyright 2009, Gaussian, Inc.),
 the Gaussian(R) 03 system (copyright 2003, Gaussian, Inc.),
 the Gaussian(R) 98 system (copyright 1998, Gaussian, Inc.),
 the Gaussian(R) 94 system (copyright 1995, Gaussian, Inc.),
 the Gaussian 92(TM) system (copyright 1992, Gaussian, Inc.),
 the Gaussian 90(TM) system (copyright 1990, Gaussian, Inc.),
 the Gaussian 88(TM) system (copyright 1988, Gaussian, Inc.),
 the Gaussian 86(TM) system (copyright 1986, Carnegie Mellon
 University), and the Gaussian 82(TM) system (copyright 1983,
 Carnegie Mellon University). Gaussian is a federally registered
 trademark of Gaussian, Inc.
  
 This software contains proprietary and confidential information,
 including trade secrets, belonging to Gaussian, Inc.
  
 This software is provided under written license and may be
 used, copied, transmitted, or stored only in accord with that
 written license.
  
 The following legend is applicable only to US Government
 contracts under FAR:
  
                    RESTRICTED RIGHTS LEGEND
  
 Use, reproduction and disclosure by the US Government is
 subject to restrictions as set forth in subparagraphs (a)
 and (c) of the Commercial Computer Software - Restricted
 Rights clause in FAR 52.227-19.
  
 Gaussian, Inc.
 340 Quinnipiac St., Bldg. 40, Wallingford CT 06492
  
  
 ---------------------------------------------------------------
 Warning -- This program may not be used in any manner that
 competes with the business of Gaussian, Inc. or will provide
 assistance to any competitor of Gaussian, Inc.  The licensee
 of this program is prohibited from giving any competitor of
 Gaussian, Inc. access to this program.  By using this program,
 the user acknowledges that Gaussian, Inc. is engaged in the
 business of creating and licensing software in the field of
 computational chemistry and represents and warrants to the
 licensee that it is not a competitor of Gaussian, Inc. and that
 it will not use this program in any manner prohibited above.
 ---------------------------------------------------------------
  

 Cite this work as:
 Gaussian 16, Revision B.01,
 M. J. Frisch, G. W. Trucks, H. B. Schlegel, G. E. Scuseria, 
 M. A. Robb, J. R. Cheeseman, G. Scalmani, V. Barone, 
 G. A. Petersson, H. Nakatsuji, X. Li, M. Caricato, A. V. Marenich, 
 J. Bloino, B. G. Janesko, R. Gomperts, B. Mennucci, H. P. Hratchian, 
 J. V. Ortiz, A. F. Izmaylov, J. L. Sonnenberg, D. Williams-Young, 
 F. Ding, F. Lipparini, F. Egidi, J. Goings, B. Peng, A. Petrone, 
 T. Henderson, D. Ranasinghe, V. G. Zakrzewski, J. Gao, N. Rega, 
 G. Zheng, W. Liang, M. Hada, M. Ehara, K. Toyota, R. Fukuda, 
 J. Hasegawa, M. Ishida, T. Nakajima, Y. Honda, O. Kitao, H. Nakai, 
 T. Vreven, K. Throssell, J. A. Montgomery, Jr., J. E. Peralta, 
 F. Ogliaro, M. J. Bearpark, J. J. Heyd, E. N. Brothers, K. N. Kudin, 
 V. N. Staroverov, T. A. Keith, R. Kobayashi, J. Normand, 
 K. Raghavachari, A. P. Rendell, J. C. Burant, S. S. Iyengar, 
 J. Tomasi, M. Cossi, J. M. Millam, M. Klene, C. Adamo, R. Cammi, 
 J. W. Ochterski, R. L. Martin, K. Morokuma, O. Farkas, 
 J. B. Foresman, and D. J. Fox, Gaussian, Inc., Wallingford CT, 2016.
 
 ******************************************
 Gaussian 16:  ES64L-G16RevB.01 20-Dec-2017
                10-Aug-2019 
 ******************************************
 %chk=freq.chk
 ----------------------------------------------------------------------
 # freq(intmodes) iop(1/33=3) b3lyp/6-31g(d,p) geom=connectivity iop(7/
 75=-1)
 ----------------------------------------------------------------------
 1/10=4,18=20,30=1,33=3,38=1,57=2/1,3;
 2/9=110,12=2,17=6,18=5,40=1/2;
 3/5=1,6=6,7=101,11=2,25=1,30=1,71=2,74=-5,140=1/1,2,3;
 4//1;
 5/5=2,38=5,98=1/2;
 8/6=4,10=90,11=11/1;
 11/6=1,8=1,9=11,15=111,16=1/1,2,10;
 10/6=1/2;
 6/7=2,8=2,9=2,10=2,28=1/1;
 7/8=21,10=1,25=1,75=-1/1,2,3,16;
 1/10=4,18=20,30=1,33=3/3;
 99//99;
 ONIOM results not found on unit 2.
 ----
 name
 ----
 TstMul:  ICh=     0
 TstMul:  Mul=     1
 TstMul:  ICh=     0
 TstMul:  Mul=     1
 Symbolic Z-matrix:
 Charge =  0 Multiplicity = 1
 C                     0.        1.12504   0.33156 
 C                     0.        0.71252  -0.98322 
 C                     0.       -0.71252  -0.98322 
 C                     0.       -1.12504   0.33156 
 H                     0.        2.11343   0.76617 
 H                     0.        1.36008  -1.84864 
 H                     0.       -1.36008  -1.84864 
 H                     0.       -2.11343   0.76617 
 N                     0.        0.        1.12228 
 H                     0.        0.        2.12894 
 
 RdStrC is calling ZToCFu for IStruc=1 NZ=    10.
                                ZToCFu                                
 ---------------------------------------------------------------------
 Center     Atomic      Atomic             Coordinates (Angstroms)
 Number     Number       Type             X           Y           Z
 ---------------------------------------------------------------------
      1          6           0        0.000000    1.125044    0.331558
      2          6           0        0.000000    0.712523   -0.983217
      3          6           0        0.000000   -0.712523   -0.983217
      4          6           0        0.000000   -1.125044    0.331558
      5          1           0        0.000000    2.113433    0.766166
      6          1           0        0.000000    1.360078   -1.848644
      7          1           0        0.000000   -1.360078   -1.848644
      8          1           0        0.000000   -2.113433    0.766166
      9          7           0        0.000000    0.000000    1.122276
     10          1           0        0.000000    0.000000    2.128935
 ---------------------------------------------------------------------
 Connectivity in DoCon:
 I=     1 IAn=  6 IBond, RBType=     2  2.00     5  1.00     9  1.50
 I=     2 IAn=  6 IBond, RBType=     1  2.00     3  1.50     6  1.00
 I=     3 IAn=  6 IBond, RBType=     2  1.50     4  2.00     7  1.00
 I=     4 IAn=  6 IBond, RBType=     3  2.00     8  1.00     9  1.50
 I=     5 IAn=  1 IBond, RBType=     1  1.00
 I=     6 IAn=  1 IBond, RBType=     2  1.00
 I=     7 IAn=  1 IBond, RBType=     3  1.00
 I=     8 IAn=  1 IBond, RBType=     4  1.00
 I=     9 IAn=  7 IBond, RBType=     1  1.50     4  1.50    10  1.00
 I=    10 IAn=  1 IBond, RBType=     9  1.00
 After GenITR:
 ITRead=  0  0  0  0  0  0  0  0  0  0
 MicOpt= -1 -1 -1 -1 -1 -1 -1 -1 -1 -1
 List IsCon N=     10 M=      2:
 I=      1 Vals=      2      2 |      5      1 |      9      1 |
 I=      2 Vals=      1      2 |      3      1 |      6      1 |
 I=      3 Vals=      2      1 |      4      2 |      7      1 |
 I=      4 Vals=      3      2 |      8      1 |      9      1 |
 I=      5 Vals=      1      1 |
 I=      6 Vals=      2      1 |
 I=      7 Vals=      3      1 |
 I=      8 Vals=      4      1 |
 I=      9 Vals=      1      1 |      4      1 |     10      1 |
 I=     10 Vals=      9      1 |
 Coordinate R1 contains atom 1 which is already in QM block.
 Coordinate R1 contains atom 2 which is already in QM block.
 Coordinate R2 contains atom 1 which is already in QM block.
 Coordinate R2 contains atom 5 which is already in QM block.
 Coordinate R3 contains atom 1 which is already in QM block.
 Coordinate R3 contains atom 9 which is already in QM block.
 Coordinate R4 contains atom 2 which is already in QM block.
 Coordinate R4 contains atom 3 which is already in QM block.
 Coordinate R5 contains atom 2 which is already in QM block.
 Coordinate R5 contains atom 6 which is already in QM block.
 Coordinate R6 contains atom 3 which is already in QM block.
 Coordinate R6 contains atom 4 which is already in QM block.
 Coordinate R7 contains atom 3 which is already in QM block.
 Coordinate R7 contains atom 7 which is already in QM block.
 Coordinate R8 contains atom 4 which is already in QM block.
 Coordinate R8 contains atom 8 which is already in QM block.
 Coordinate R9 contains atom 4 which is already in QM block.
 Coordinate R9 contains atom 9 which is already in QM block.
 Coordinate R10 contains atom 9 which is already in QM block.
 Coordinate R10 contains atom 10 which is already in QM block.
 Coordinate A1 contains atom 2 which is already in QM block.
 Coordinate A1 contains atom 1 which is already in QM block.
 Coordinate A1 contains atom 1 which is already in QM block.
 Coordinate A2 contains atom 2 which is already in QM block.
 Coordinate A2 contains atom 1 which is already in QM block.
 Coordinate A2 contains atom 1 which is already in QM block.
 Coordinate A3 contains atom 5 which is already in QM block.
 Coordinate A3 contains atom 1 which is already in QM block.
 Coordinate A3 contains atom 1 which is already in QM block.
 Coordinate A4 contains atom 1 which is already in QM block.
 Coordinate A4 contains atom 2 which is already in QM block.
 Coordinate A4 contains atom 2 which is already in QM block.
 Coordinate A5 contains atom 1 which is already in QM block.
 Coordinate A5 contains atom 2 which is already in QM block.
 Coordinate A5 contains atom 2 which is already in QM block.
 Coordinate A6 contains atom 3 which is already in QM block.
 Coordinate A6 contains atom 2 which is already in QM block.
 Coordinate A6 contains atom 2 which is already in QM block.
 Coordinate A7 contains atom 2 which is already in QM block.
 Coordinate A7 contains atom 3 which is already in QM block.
 Coordinate A7 contains atom 3 which is already in QM block.
 Coordinate A8 contains atom 2 which is already in QM block.
 Coordinate A8 contains atom 3 which is already in QM block.
 Coordinate A8 contains atom 3 which is already in QM block.
 Coordinate A9 contains atom 4 which is already in QM block.
 Coordinate A9 contains atom 3 which is already in QM block.
 Coordinate A9 contains atom 3 which is already in QM block.
 Coordinate A10 contains atom 3 which is already in QM block.
 Coordinate A10 contains atom 4 which is already in QM block.
 Coordinate A10 contains atom 4 which is already in QM block.
 Coordinate A11 contains atom 3 which is already in QM block.
 Coordinate A11 contains atom 4 which is already in QM block.
 Coordinate A11 contains atom 4 which is already in QM block.
 Coordinate A12 contains atom 8 which is already in QM block.
 Coordinate A12 contains atom 4 which is already in QM block.
 Coordinate A12 contains atom 4 which is already in QM block.
 Coordinate A13 contains atom 1 which is already in QM block.
 Coordinate A13 contains atom 9 which is already in QM block.
 Coordinate A13 contains atom 9 which is already in QM block.
 Coordinate A14 contains atom 1 which is already in QM block.
 Coordinate A14 contains atom 9 which is already in QM block.
 Coordinate A14 contains atom 9 which is already in QM block.
 Coordinate A15 contains atom 4 which is already in QM block.
 Coordinate A15 contains atom 9 which is already in QM block.
 Coordinate A15 contains atom 9 which is already in QM block.
 Coordinate D1 contains atom 5 which is already in QM block.
 Coordinate D1 contains atom 1 which is already in QM block.
 Coordinate D1 contains atom 2 which is already in QM block.
 Coordinate D1 contains atom 3 which is already in QM block.
 Coordinate D2 contains atom 5 which is already in QM block.
 Coordinate D2 contains atom 1 which is already in QM block.
 Coordinate D2 contains atom 2 which is already in QM block.
 Coordinate D2 contains atom 6 which is already in QM block.
 Coordinate D3 contains atom 9 which is already in QM block.
 Coordinate D3 contains atom 1 which is already in QM block.
 Coordinate D3 contains atom 2 which is already in QM block.
 Coordinate D3 contains atom 3 which is already in QM block.
 Coordinate D4 contains atom 9 which is already in QM block.
 Coordinate D4 contains atom 1 which is already in QM block.
 Coordinate D4 contains atom 2 which is already in QM block.
 Coordinate D4 contains atom 6 which is already in QM block.
 Coordinate D5 contains atom 2 which is already in QM block.
 Coordinate D5 contains atom 1 which is already in QM block.
 Coordinate D5 contains atom 9 which is already in QM block.
 Coordinate D5 contains atom 4 which is already in QM block.
 Coordinate D6 contains atom 2 which is already in QM block.
 Coordinate D6 contains atom 1 which is already in QM block.
 Coordinate D6 contains atom 9 which is already in QM block.
 Coordinate D6 contains atom 10 which is already in QM block.
 Coordinate D7 contains atom 5 which is already in QM block.
 Coordinate D7 contains atom 1 which is already in QM block.
 Coordinate D7 contains atom 9 which is already in QM block.
 Coordinate D7 contains atom 4 which is already in QM block.
 Coordinate D8 contains atom 5 which is already in QM block.
 Coordinate D8 contains atom 1 which is already in QM block.
 Coordinate D8 contains atom 9 which is already in QM block.
 Coordinate D8 contains atom 10 which is already in QM block.
 Coordinate D9 contains atom 1 which is already in QM block.
 Coordinate D9 contains atom 2 which is already in QM block.
 Coordinate D9 contains atom 3 which is already in QM block.
 Coordinate D9 contains atom 4 which is already in QM block.
 Coordinate D10 contains atom 1 which is already in QM block.
 Coordinate D10 contains atom 2 which is already in QM block.
 Coordinate D10 contains atom 3 which is already in QM block.
 Coordinate D10 contains atom 7 which is already in QM block.
 Coordinate D11 contains atom 6 which is already in QM block.
 Coordinate D11 contains atom 2 which is already in QM block.
 Coordinate D11 contains atom 3 which is already in QM block.
 Coordinate D11 contains atom 4 which is already in QM block.
 Coordinate D12 contains atom 6 which is already in QM block.
 Coordinate D12 contains atom 2 which is already in QM block.
 Coordinate D12 contains atom 3 which is already in QM block.
 Coordinate D12 contains atom 7 which is already in QM block.
 Coordinate D13 contains atom 2 which is already in QM block.
 Coordinate D13 contains atom 3 which is already in QM block.
 Coordinate D13 contains atom 4 which is already in QM block.
 Coordinate D13 contains atom 8 which is already in QM block.
 Coordinate D14 contains atom 2 which is already in QM block.
 Coordinate D14 contains atom 3 which is already in QM block.
 Coordinate D14 contains atom 4 which is already in QM block.
 Coordinate D14 contains atom 9 which is already in QM block.
 Coordinate D15 contains atom 7 which is already in QM block.
 Coordinate D15 contains atom 3 which is already in QM block.
 Coordinate D15 contains atom 4 which is already in QM block.
 Coordinate D15 contains atom 8 which is already in QM block.
 Coordinate D16 contains atom 7 which is already in QM block.
 Coordinate D16 contains atom 3 which is already in QM block.
 Coordinate D16 contains atom 4 which is already in QM block.
 Coordinate D16 contains atom 9 which is already in QM block.
 Coordinate D17 contains atom 3 which is already in QM block.
 Coordinate D17 contains atom 4 which is already in QM block.
 Coordinate D17 contains atom 9 which is already in QM block.
 Coordinate D17 contains atom 1 which is already in QM block.
 Coordinate D18 contains atom 3 which is already in QM block.
 Coordinate D18 contains atom 4 which is already in QM block.
 Coordinate D18 contains atom 9 which is already in QM block.
 Coordinate D18 contains atom 10 which is already in QM block.
 Coordinate D19 contains atom 8 which is already in QM block.
 Coordinate D19 contains atom 4 which is already in QM block.
 Coordinate D19 contains atom 9 which is already in QM block.
 Coordinate D19 contains atom 1 which is already in QM block.
 Coordinate D20 contains atom 8 which is already in QM block.
 Coordinate D20 contains atom 4 which is already in QM block.
 Coordinate D20 contains atom 9 which is already in QM block.
 Coordinate D20 contains atom 10 which is already in QM block.
 Saved connectivity
 I=     1 IAn=  6 IBond, RBType=     2  2.00     5  1.00     9  1.50
 I=     2 IAn=  6 IBond, RBType=     1  2.00     3  1.50     6  1.00
 I=     3 IAn=  6 IBond, RBType=     2  1.50     4  2.00     7  1.00
 I=     4 IAn=  6 IBond, RBType=     3  2.00     8  1.00     9  1.50
 I=     5 IAn=  1 IBond, RBType=     1  1.00
 I=     6 IAn=  1 IBond, RBType=     2  1.00
 I=     7 IAn=  1 IBond, RBType=     3  1.00
 I=     8 IAn=  1 IBond, RBType=     4  1.00
 I=     9 IAn=  7 IBond, RBType=     1  1.50     4  1.50    10  1.00
 I=    10 IAn=  1 IBond, RBType=     9  1.00
 ITRead=  0  0  0  0  0  0  0  0  0  0
 MicOpt= -1 -1 -1 -1 -1 -1 -1 -1 -1 -1
 NAtoms=     10 NQM=       10 NQMF=       0 NMMI=      0 NMMIF=      0
                NMic=       0 NMicF=      0.
 No MM parameters found.
 Leave Link  101 at Sat Aug 10 16:33:45 2019, MaxMem=  4294967296 cpu:               5.7 elap:               0.4

 GradGradGradGradGradGradGradGradGradGradGradGradGradGradGradGradGradGrad
 Berny optimization.
 GetPCM: File not found, return IValue=0.
 Optmz: redundant internal coordinate code flag= 1
 Initialization pass.
                           ----------------------------
                           !    Initial Parameters    !
                           ! (Angstroms and Degrees)  !
 --------------------------                            --------------------------
 ! Name  Definition              Value          Derivative Info.                !
 --------------------------------------------------------------------------------
 ! R1    R(1,2)                  1.378          calculate D2E/DX2 analytically  !
 ! R2    R(1,5)                  1.0797         calculate D2E/DX2 analytically  !
 ! R3    R(1,9)                  1.3751         calculate D2E/DX2 analytically  !
 ! R4    R(2,3)                  1.425          calculate D2E/DX2 analytically  !
 ! R5    R(2,6)                  1.0809         calculate D2E/DX2 analytically  !
 ! R6    R(3,4)                  1.378          calculate D2E/DX2 analytically  !
 ! R7    R(3,7)                  1.0809         calculate D2E/DX2 analytically  !
 ! R8    R(4,8)                  1.0797         calculate D2E/DX2 analytically  !
 ! R9    R(4,9)                  1.3751         calculate D2E/DX2 analytically  !
 ! R10   R(9,10)                 1.0067         calculate D2E/DX2 analytically  !
 ! A1    A(2,1,5)              131.1554         calculate D2E/DX2 analytically  !
 ! A2    A(2,1,9)              107.6812         calculate D2E/DX2 analytically  !
 ! A3    A(5,1,9)              121.1634         calculate D2E/DX2 analytically  !
 ! A4    A(1,2,3)              107.4197         calculate D2E/DX2 analytically  !
 ! A5    A(1,2,6)              125.7747         calculate D2E/DX2 analytically  !
 ! A6    A(3,2,6)              126.8056         calculate D2E/DX2 analytically  !
 ! A7    A(2,3,4)              107.4197         calculate D2E/DX2 analytically  !
 ! A8    A(2,3,7)              126.8056         calculate D2E/DX2 analytically  !
 ! A9    A(4,3,7)              125.7747         calculate D2E/DX2 analytically  !
 ! A10   A(3,4,8)              131.1554         calculate D2E/DX2 analytically  !
 ! A11   A(3,4,9)              107.6812         calculate D2E/DX2 analytically  !
 ! A12   A(8,4,9)              121.1634         calculate D2E/DX2 analytically  !
 ! A13   A(1,9,4)              109.7984         calculate D2E/DX2 analytically  !
 ! A14   A(1,9,10)             125.1008         calculate D2E/DX2 analytically  !
 ! A15   A(4,9,10)             125.1008         calculate D2E/DX2 analytically  !
 ! D1    D(5,1,2,3)            180.0            calculate D2E/DX2 analytically  !
 ! D2    D(5,1,2,6)              0.0            calculate D2E/DX2 analytically  !
 ! D3    D(9,1,2,3)              0.0            calculate D2E/DX2 analytically  !
 ! D4    D(9,1,2,6)            180.0            calculate D2E/DX2 analytically  !
 ! D5    D(2,1,9,4)              0.0            calculate D2E/DX2 analytically  !
 ! D6    D(2,1,9,10)           180.0            calculate D2E/DX2 analytically  !
 ! D7    D(5,1,9,4)            180.0            calculate D2E/DX2 analytically  !
 ! D8    D(5,1,9,10)             0.0            calculate D2E/DX2 analytically  !
 ! D9    D(1,2,3,4)              0.0            calculate D2E/DX2 analytically  !
 ! D10   D(1,2,3,7)            180.0            calculate D2E/DX2 analytically  !
 ! D11   D(6,2,3,4)            180.0            calculate D2E/DX2 analytically  !
 ! D12   D(6,2,3,7)              0.0            calculate D2E/DX2 analytically  !
 ! D13   D(2,3,4,8)            180.0            calculate D2E/DX2 analytically  !
 ! D14   D(2,3,4,9)              0.0            calculate D2E/DX2 analytically  !
 ! D15   D(7,3,4,8)              0.0            calculate D2E/DX2 analytically  !
 ! D16   D(7,3,4,9)            180.0            calculate D2E/DX2 analytically  !
 ! D17   D(3,4,9,1)              0.0            calculate D2E/DX2 analytically  !
 ! D18   D(3,4,9,10)           180.0            calculate D2E/DX2 analytically  !
 ! D19   D(8,4,9,1)            180.0            calculate D2E/DX2 analytically  !
 ! D20   D(8,4,9,10)             0.0            calculate D2E/DX2 analytically  !
 --------------------------------------------------------------------------------
 Maximum allowed force set to 1.00D+20.
 Trust Radius=3.00D-01 FncErr=1.00D-07 GrdErr=1.00D-07 EigMax=2.50D+02 EigMin=1.00D-04
 Number of steps in this run=      2 maximum allowed number of steps=      2.
 GradGradGradGradGradGradGradGradGradGradGradGradGradGradGradGradGradGrad

 Leave Link  103 at Sat Aug 10 16:33:45 2019, MaxMem=  4294967296 cpu:               0.2 elap:               0.0
                          Input orientation:                          
 ---------------------------------------------------------------------
 Center     Atomic      Atomic             Coordinates (Angstroms)
 Number     Number       Type             X           Y           Z
 ---------------------------------------------------------------------
      1          6           0        0.000000    1.125044    0.331558
      2          6           0        0.000000    0.712523   -0.983217
      3          6           0        0.000000   -0.712523   -0.983217
      4          6           0        0.000000   -1.125044    0.331558
      5          1           0        0.000000    2.113433    0.766166
      6          1           0        0.000000    1.360078   -1.848644
      7          1           0        0.000000   -1.360078   -1.848644
      8          1           0        0.000000   -2.113433    0.766166
      9          7           0        0.000000    0.000000    1.122276
     10          1           0        0.000000    0.000000    2.128935
 ---------------------------------------------------------------------
                    Distance matrix (angstroms):
                    1          2          3          4          5
     1  C    0.000000
     2  C    1.377972   0.000000
     3  C    2.259488   1.425046   0.000000
     4  C    2.250088   2.259488   1.377972   0.000000
     5  H    1.079721   2.241180   3.323608   3.267509   0.000000
     6  H    2.192834   1.080875   2.246027   3.305921   2.721172
     7  H    3.305921   2.246027   1.080875   2.192834   4.347702
     8  H    3.267509   3.323608   2.241180   1.079721   4.226866
     9  N    1.375121   2.222789   2.222789   1.375121   2.143225
    10  H    2.120445   3.192676   3.192676   2.120445   2.514704
                    6          7          8          9         10
     6  H    0.000000
     7  H    2.720156   0.000000
     8  H    4.347702   2.721172   0.000000
     9  N    3.267442   3.267442   2.143225   0.000000
    10  H    4.203683   4.203683   2.514704   1.006659   0.000000
 Stoichiometry    C4H5N
 Framework group  C2V[C2(NH),SGV(C4H4)]
 Deg. of freedom     9
 Full point group                 C2V     NOp   4
 Largest Abelian subgroup         C2V     NOp   4
 Largest concise Abelian subgroup C2      NOp   2
                         Standard orientation:                         
 ---------------------------------------------------------------------
 Center     Atomic      Atomic             Coordinates (Angstroms)
 Number     Number       Type             X           Y           Z
 ---------------------------------------------------------------------
      1          6           0        0.000000    1.125044    0.331558
      2          6           0        0.000000    0.712523   -0.983217
      3          6           0       -0.000000   -0.712523   -0.983217
      4          6           0       -0.000000   -1.125044    0.331558
      5          1           0        0.000000    2.113433    0.766166
      6          1           0        0.000000    1.360078   -1.848644
      7          1           0       -0.000000   -1.360078   -1.848644
      8          1           0       -0.000000   -2.113433    0.766166
      9          7           0        0.000000    0.000000    1.122276
     10          1           0        0.000000    0.000000    2.128935
 ---------------------------------------------------------------------
 Rotational constants (GHZ):           9.1399208           9.0059859           4.5362295
 Standard basis: 6-31G(d,p) (6D, 7F)
 There are    41 symmetry adapted cartesian basis functions of A1  symmetry.
 There are    11 symmetry adapted cartesian basis functions of A2  symmetry.
 There are    14 symmetry adapted cartesian basis functions of B1  symmetry.
 There are    34 symmetry adapted cartesian basis functions of B2  symmetry.
 There are    41 symmetry adapted basis functions of A1  symmetry.
 There are    11 symmetry adapted basis functions of A2  symmetry.
 There are    14 symmetry adapted basis functions of B1  symmetry.
 There are    34 symmetry adapted basis functions of B2  symmetry.
   100 basis functions,   175 primitive gaussians,   100 cartesian basis functions
    18 alpha electrons       18 beta electrons
       nuclear repulsion energy       160.7698976258 Hartrees.
 NAtoms=   10 NActive=   10 NUniq=    6 SFac= 2.78D+00 NAtFMM=   60 NAOKFM=F Big=F
 Integral buffers will be    131072 words long.
 Raffenetti 2 integral format.
 Two-electron integral symmetry is turned on.
 One-electron integrals computed using PRISM.
 NBasis=   100 RedAO= T EigKep=  1.29D-03  NBF=    41    11    14    34
 NBsUse=   100 1.00D-06 EigRej= -1.00D+00 NBFU=    41    11    14    34
 ExpMin= 1.61D-01 ExpMax= 4.17D+03 ExpMxC= 6.27D+02 IAcc=3 IRadAn=         5 AccDes= 0.00D+00
 Harris functional with IExCor=  402 and IRadAn=       5 diagonalized for initial guess.
 HarFok:  IExCor=  402 AccDes= 0.00D+00 IRadAn=         5 IDoV= 1 UseB2=F ITyADJ=14
 ICtDFT=  3500011 ScaDFX=  1.000000  1.000000  1.000000  1.000000
 FoFCou: FMM=F IPFlag=           0 FMFlag=      100000 FMFlg1=           0
         NFxFlg=           0 DoJE=T BraDBF=F KetDBF=T FulRan=T
         wScrn=  0.000000 ICntrl=       500 IOpCl=  0 I1Cent=   200000004 NGrid=           0
         NMat0=    1 NMatS0=      1 NMatT0=    0 NMatD0=    1 NMtDS0=    0 NMtDT0=    0
 Petite list used in FoFCou.
 Initial guess orbital symmetries:
       Occupied  (A1) (A1) (B2) (B2) (A1) (A1) (A1) (B2) (A1) (B2)
                 (A1) (A1) (B2) (B2) (A1) (B1) (B1) (A2)
       Virtual   (B1) (A2) (A1) (A1) (B2) (A1) (B2) (B2) (A1) (A1)
                 (B2) (B2) (A1) (B1) (A1) (B2) (A1) (A2) (B2) (B1)
                 (A1) (A2) (B1) (B2) (A1) (B2) (A1) (A1) (B2) (B2)
                 (A1) (B2) (A1) (B2) (B1) (A1) (B1) (A2) (A2) (B1)
                 (A1) (B2) (A1) (A1) (A1) (B2) (B2) (A2) (B1) (A1)
                 (A1) (B2) (A2) (B1) (B1) (A1) (B2) (A1) (A2) (B2)
                 (B2) (B1) (A1) (A2) (B2) (A2) (B2) (B1) (A1) (A1)
                 (B2) (A1) (B2) (A1) (B2) (A1) (B2) (A1) (A1) (B2)
                 (A1) (B2)
 The electronic state of the initial guess is 1-A1.
 Keep R1 ints in memory in symmetry-blocked form, NReq=27592003.
 Requested convergence on RMS density matrix=1.00D-08 within 128 cycles.
 Requested convergence on MAX density matrix=1.00D-06.
 Requested convergence on             energy=1.00D-06.
 No special actions if energy rises.
 Integral accuracy reduced to 1.0D-05 until final iterations.
 Initial convergence to 1.0D-05 achieved.  Increase integral accuracy.
 SCF Done:  E(RB3LYP) =  -210.176340442     A.U. after   12 cycles
            NFock= 12  Conv=0.49D-08     -V/T= 2.0098
 DoSCS=F DFT=T ScalE2(SS,OS)=  1.000000  1.000000
 Range of M.O.s used for correlation:     1   100
 NBasis=   100 NAE=    18 NBE=    18 NFC=     0 NFV=     0
 NROrb=    100 NOA=    18 NOB=    18 NVA=    82 NVB=    82

 **** Warning!!: The largest alpha MO coefficient is  0.10200779D+02

 Symmetrizing basis deriv contribution to polar:
 IMax=3 JMax=2 DiffMx= 0.00D+00
 G2DrvN: will do    11 centers at a time, making    1 passes.
 Calling FoFCou, ICntrl=  3107 FMM=F I1Cent=   0 AccDes= 0.00D+00.
 End of G2Drv F.D. properties file   721 does not exist.
 End of G2Drv F.D. properties file   722 does not exist.
 End of G2Drv F.D. properties file   788 does not exist.
          IDoAtm=1111111111
          Differentiating once with respect to electric field.
                with respect to dipole field.
          Differentiating once with respect to nuclear coordinates.
 Keep R1 ints in memory in symmetry-blocked form, NReq=27545609.
          There are    21 degrees of freedom in the 1st order CPHF.  IDoFFX=4 NUNeed=    21.
     21 vectors produced by pass  0 Test12= 7.03D-15 4.76D-09 XBig12= 5.39D+01 5.15D+00.
 AX will form    21 AO Fock derivatives at one time.
     21 vectors produced by pass  1 Test12= 7.03D-15 4.76D-09 XBig12= 1.26D+01 1.21D+00.
     21 vectors produced by pass  2 Test12= 7.03D-15 4.76D-09 XBig12= 2.19D-01 1.07D-01.
     21 vectors produced by pass  3 Test12= 7.03D-15 4.76D-09 XBig12= 1.03D-03 5.79D-03.
     21 vectors produced by pass  4 Test12= 7.03D-15 4.76D-09 XBig12= 3.70D-06 4.82D-04.
     19 vectors produced by pass  5 Test12= 7.03D-15 4.76D-09 XBig12= 5.16D-09 1.30D-05.
      5 vectors produced by pass  6 Test12= 7.03D-15 4.76D-09 XBig12= 5.62D-12 3.60D-07.
      2 vectors produced by pass  7 Test12= 7.03D-15 4.76D-09 XBig12= 5.40D-15 1.37D-08.
 InvSVY:  IOpt=1 It=  1 EMax= 3.55D-15
 Solved reduced A of dimension   131 with    21 vectors.
 Isotropic polarizability for W=    0.000000       41.21 Bohr**3.
 End of Minotr F.D. properties file   721 does not exist.
 End of Minotr F.D. properties file   722 does not exist.
 End of Minotr F.D. properties file   788 does not exist.

 **********************************************************************

            Population analysis using the SCF Density.

 **********************************************************************

 Orbital symmetries:
       Occupied  (A1) (B2) (A1) (A1) (B2) (A1) (A1) (B2) (A1) (B2)
                 (A1) (A1) (B2) (B1) (B2) (A1) (B1) (A2)
       Virtual   (B1) (A1) (A2) (A1) (B2) (A1) (B2) (B2) (A1) (A1)
                 (B2) (B2) (A1) (B1) (A1) (A2) (B2) (A1) (B2) (B1)
                 (A1) (A2) (B1) (B2) (A1) (A1) (B2) (B2) (A1) (B2)
                 (A1) (B2) (A1) (B2) (B1) (A1) (A2) (B1) (A2) (B1)
                 (A1) (B2) (A1) (A1) (A1) (B2) (B2) (A2) (B1) (A1)
                 (A1) (B2) (A2) (B1) (B1) (A1) (B2) (A2) (B2) (A1)
                 (B1) (B2) (A1) (B2) (A2) (A2) (B1) (B2) (A1) (A1)
                 (B2) (A1) (B2) (A1) (B2) (A1) (B2) (A1) (A1) (B2)
                 (A1) (B2)
 The electronic state is 1-A1.
 Alpha  occ. eigenvalues --  -14.37356 -10.19711 -10.19710 -10.16083 -10.16039
 Alpha  occ. eigenvalues --   -0.96402  -0.76105  -0.70970  -0.58060  -0.55456
 Alpha  occ. eigenvalues --   -0.53515  -0.42024  -0.41435  -0.39426  -0.37927
 Alpha  occ. eigenvalues --   -0.36424  -0.23296  -0.20224
 Alpha virt. eigenvalues --    0.04949   0.08026   0.09528   0.14177   0.16530
 Alpha virt. eigenvalues --    0.17258   0.18368   0.24041   0.24457   0.33946
 Alpha virt. eigenvalues --    0.36852   0.45281   0.54189   0.55756   0.57879
 Alpha virt. eigenvalues --    0.60519   0.60804   0.61626   0.63086   0.63352
 Alpha virt. eigenvalues --    0.64980   0.69616   0.77541   0.80375   0.81486
 Alpha virt. eigenvalues --    0.84396   0.84639   0.91381   0.91716   0.92843
 Alpha virt. eigenvalues --    0.98548   1.14271   1.15994   1.23064   1.26496
 Alpha virt. eigenvalues --    1.28189   1.35609   1.37232   1.44465   1.44667
 Alpha virt. eigenvalues --    1.48581   1.49580   1.78069   1.85741   1.88810
 Alpha virt. eigenvalues --    1.89130   1.96747   2.02139   2.03658   2.05279
 Alpha virt. eigenvalues --    2.12178   2.15326   2.18359   2.19924   2.36319
 Alpha virt. eigenvalues --    2.42106   2.42313   2.44431   2.46274   2.46313
 Alpha virt. eigenvalues --    2.48667   2.50498   2.51398   2.56368   2.56877
 Alpha virt. eigenvalues --    2.77520   2.78724   2.81819   2.84918   2.98565
 Alpha virt. eigenvalues --    3.01003   3.20784   3.26305   3.30240   3.35432
 Alpha virt. eigenvalues --    3.74567   3.80431   4.05265   4.19501   4.21577
 Alpha virt. eigenvalues --    4.66582   4.76105
          Condensed to atoms (all electrons):
               1          2          3          4          5          6
     1  C    4.835418   0.581777  -0.043192  -0.124873   0.379841  -0.050628
     2  C    0.581777   4.811096   0.531535  -0.043192  -0.036931   0.381525
     3  C   -0.043192   0.531535   4.811096   0.581777   0.003963  -0.041928
     4  C   -0.124873  -0.043192   0.581777   4.835418   0.006358   0.006945
     5  H    0.379841  -0.036931   0.003963   0.006358   0.606997  -0.002004
     6  H   -0.050628   0.381525  -0.041928   0.006945  -0.002004   0.629742
     7  H    0.006945  -0.041928   0.381525  -0.050628  -0.000151  -0.003574
     8  H    0.006358   0.003963  -0.036931   0.379841  -0.000138  -0.000151
     9  N    0.371311  -0.065863  -0.065863   0.371311  -0.049675   0.005030
    10  H   -0.033233   0.006304   0.006304  -0.033233  -0.002965  -0.000149
               7          8          9         10
     1  C    0.006945   0.006358   0.371311  -0.033233
     2  C   -0.041928   0.003963  -0.065863   0.006304
     3  C    0.381525  -0.036931  -0.065863   0.006304
     4  C   -0.050628   0.379841   0.371311  -0.033233
     5  H   -0.000151  -0.000138  -0.049675  -0.002965
     6  H   -0.003574  -0.000151   0.005030  -0.000149
     7  H    0.629742  -0.002004   0.005030  -0.000149
     8  H   -0.002004   0.606997  -0.049675  -0.002965
     9  N    0.005030  -0.049675   6.607335   0.356164
    10  H   -0.000149  -0.002965   0.356164   0.442584
 Mulliken charges:
               1
     1  C    0.070275
     2  C   -0.128286
     3  C   -0.128286
     4  C    0.070275
     5  H    0.094704
     6  H    0.075191
     7  H    0.075191
     8  H    0.094704
     9  N   -0.485106
    10  H    0.261339
 Sum of Mulliken charges =   0.00000
 Mulliken charges with hydrogens summed into heavy atoms:
               1
     1  C    0.164979
     2  C   -0.053095
     3  C   -0.053095
     4  C    0.164979
     9  N   -0.223767
 APT charges:
               1
     1  C    0.038166
     2  C   -0.087840
     3  C   -0.087840
     4  C    0.038166
     5  H    0.055871
     6  H    0.045339
     7  H    0.045339
     8  H    0.055871
     9  N   -0.331363
    10  H    0.228291
 Sum of APT charges =   0.00000
 APT charges with hydrogens summed into heavy atoms:
               1
     1  C    0.094037
     2  C   -0.042501
     3  C   -0.042501
     4  C    0.094037
     9  N   -0.103072
 Electronic spatial extent (au):  <R**2>=            304.8669
 Charge=             -0.0000 electrons
 Dipole moment (field-independent basis, Debye):
    X=             -0.0000    Y=             -0.0000    Z=              1.9017  Tot=              1.9017
 Quadrupole moment (field-independent basis, Debye-Ang):
   XX=            -32.8083   YY=            -26.4410   ZZ=            -23.2698
   XY=              0.0000   XZ=             -0.0000   YZ=             -0.0000
 Traceless Quadrupole moment (field-independent basis, Debye-Ang):
   XX=             -5.3019   YY=              1.0653   ZZ=              4.2366
   XY=              0.0000   XZ=             -0.0000   YZ=             -0.0000
 Octapole moment (field-independent basis, Debye-Ang**2):
  XXX=              0.0000  YYY=             -0.0000  ZZZ=             12.4878  XYY=              0.0000
  XXY=             -0.0000  XXZ=              1.9639  XZZ=              0.0000  YZZ=              0.0000
  YYZ=              2.6307  XYZ=              0.0000
 Hexadecapole moment (field-independent basis, Debye-Ang**3):
 XXXX=            -33.2720 YYYY=           -174.8479 ZZZZ=           -148.2235 XXXY=             -0.0000
 XXXZ=             -0.0000 YYYX=             -0.0000 YYYZ=              0.0000 ZZZX=             -0.0000
 ZZZY=             -0.0000 XXYY=            -41.6332 XXZZ=            -39.1541 YYZZ=            -55.5555
 XXYZ=             -0.0000 YYXZ=             -0.0000 ZZXY=             -0.0000
 N-N= 1.607698976258D+02 E-N=-8.090821615836D+02  KE= 2.081278968744D+02
 Symmetry A1   KE= 1.253024353363D+02
 Symmetry A2   KE= 2.376915306994D+00
 Symmetry B1   KE= 5.087799878038D+00
 Symmetry B2   KE= 7.536074635307D+01
  Exact polarizability:  18.235   0.000  53.094  -0.000  -0.000  52.295
 Approx polarizability:  26.890   0.000  82.792  -0.000   0.000  86.008
 Calling FoFJK, ICntrl=    100127 FMM=F ISym2X=1 I1Cent= 0 IOpClX= 0 NMat=1 NMatS=1 NMatT=0.
 Full mass-weighted force constant matrix:
 Low frequencies ---   -6.8239   -5.3071   -0.0006   -0.0005    0.0004    6.4515
 Low frequencies ---  459.3465  629.8994  641.1580
 Diagonal vibrational polarizability:
       15.6275017       0.8109599       1.1724893
 Harmonic frequencies (cm**-1), IR intensities (KM/Mole), Raman scattering
 activities (A**4/AMU), depolarization ratios for plane and unpolarized
 incident light, reduced masses (AMU), force constants (mDyne/A),
 and normal coordinates:
                      1                      2                      3
                     B1                     A2                     B1
 Frequencies --    459.3464               629.8994               641.1580
 Red. masses --      1.4563                 3.4543                 2.4870
 Frc consts  --      0.1810                 0.8075                 0.6024
 IR Inten    --     77.6811                 0.0000                 0.9204
  Atom  AN      X      Y      Z        X      Y      Z        X      Y      Z
     1   6     0.05   0.00  -0.00    -0.17   0.00  -0.00    -0.20  -0.00  -0.00
     2   6     0.01   0.00  -0.00     0.29  -0.00   0.00     0.10  -0.00  -0.00
     3   6     0.01   0.00   0.00    -0.29   0.00   0.00     0.10   0.00   0.00
     4   6     0.05  -0.00   0.00     0.17  -0.00  -0.00    -0.20   0.00  -0.00
     5   1     0.12   0.00   0.00    -0.38   0.00  -0.00    -0.40  -0.00  -0.00
     6   1    -0.11   0.00  -0.00     0.50  -0.00   0.00    -0.07   0.00  -0.00
     7   1    -0.11   0.00   0.00    -0.50   0.00   0.00    -0.07   0.00   0.00
     8   1     0.12  -0.00   0.00     0.38  -0.00  -0.00    -0.40   0.00  -0.00
     9   7    -0.17   0.00  -0.00     0.00  -0.00  -0.00     0.18  -0.00   0.00
    10   1     0.96   0.00   0.00    -0.00  -0.00  -0.00     0.73  -0.00   0.00
                      4                      5                      6
                     A2                     B1                     B1
 Frequencies --    679.2057               734.1249               824.9679
 Red. masses --      1.2890                 1.1669                 1.1968
 Frc consts  --      0.3503                 0.3705                 0.4799
 IR Inten    --      0.0000               110.5728                 3.4990
  Atom  AN      X      Y      Z        X      Y      Z        X      Y      Z
     1   6    -0.11   0.00  -0.00    -0.08   0.00   0.00     0.06   0.00   0.00
     2   6    -0.03   0.00  -0.00    -0.03  -0.00   0.00    -0.07  -0.00   0.00
     3   6     0.03  -0.00  -0.00    -0.03  -0.00  -0.00    -0.07  -0.00  -0.00
     4   6     0.11  -0.00   0.00    -0.08   0.00  -0.00     0.06   0.00  -0.00
     5   1     0.65   0.00  -0.00     0.50   0.00  -0.00    -0.46   0.00  -0.00
     6   1     0.26   0.00  -0.00     0.48  -0.00   0.00     0.51  -0.00   0.00
     7   1    -0.26  -0.00  -0.00     0.48  -0.00  -0.00     0.51  -0.00  -0.00
     8   1    -0.65  -0.00   0.00     0.50   0.00  -0.00    -0.46   0.00   0.00
     9   7     0.00  -0.00   0.00     0.03   0.00   0.00     0.00   0.00  -0.00
    10   1    -0.00   0.00   0.00     0.16  -0.00   0.00     0.19  -0.00  -0.00
                      7                      8                      9
                     B2                     A2                     A1
 Frequencies --    875.7842               877.3248               898.7606
 Red. masses --      5.2018                 1.2607                 4.0593
 Frc consts  --      2.3507                 0.5717                 1.9319
 IR Inten    --      1.3034                 0.0000                 0.1498
  Atom  AN      X      Y      Z        X      Y      Z        X      Y      Z
     1   6    -0.00   0.18   0.16     0.04   0.00   0.00    -0.00  -0.24  -0.05
     2   6     0.00  -0.24   0.26    -0.10  -0.00   0.00     0.00  -0.03  -0.13
     3   6    -0.00  -0.24  -0.26     0.10  -0.00  -0.00    -0.00   0.03  -0.13
     4   6     0.00   0.18  -0.16    -0.04   0.00  -0.00     0.00   0.24  -0.05
     5   1     0.00   0.31  -0.14    -0.24   0.00  -0.00     0.00  -0.09  -0.40
     6   1    -0.00  -0.13   0.35     0.65   0.00   0.00    -0.00   0.35   0.15
     7   1     0.00  -0.13  -0.35    -0.65  -0.00  -0.00     0.00  -0.35   0.15
     8   1    -0.00   0.31   0.14     0.24   0.00   0.00    -0.00   0.09  -0.40
     9   7    -0.00   0.11   0.00     0.00   0.00   0.00    -0.00  -0.00   0.32
    10   1    -0.00  -0.33   0.00    -0.00  -0.00   0.00     0.00   0.00   0.32
                     10                     11                     12
                     A1                     B2                     A1
 Frequencies --   1042.5503              1076.0674              1101.6077
 Red. masses --      1.4192                 1.3708                 1.5151
 Frc consts  --      0.9088                 0.9352                 1.0833
 IR Inten    --     26.2136                22.8106                 7.8590
  Atom  AN      X      Y      Z        X      Y      Z        X      Y      Z
     1   6    -0.00  -0.05   0.03    -0.00  -0.10  -0.04     0.00  -0.11   0.05
     2   6     0.00   0.10  -0.03     0.00   0.00   0.06    -0.00  -0.07  -0.05
     3   6    -0.00  -0.10  -0.03     0.00   0.00  -0.06     0.00   0.07  -0.05
     4   6     0.00   0.05   0.03    -0.00  -0.10   0.04     0.00   0.11   0.05
     5   1     0.00  -0.18   0.33     0.00   0.02  -0.32     0.00  -0.30   0.45
     6   1    -0.00   0.51   0.28    -0.00   0.41   0.37     0.00  -0.35  -0.25
     7   1    -0.00  -0.51   0.28    -0.00   0.41  -0.37    -0.00   0.35  -0.25
     8   1     0.00   0.18   0.33     0.00   0.02   0.32     0.00   0.30   0.45
     9   7    -0.00  -0.00  -0.10     0.00   0.07  -0.00    -0.00  -0.00  -0.03
    10   1     0.00  -0.00  -0.10     0.00   0.40  -0.00     0.00   0.00  -0.04
                     13                     14                     15
                     B2                     A1                     B2
 Frequencies --   1165.7813              1180.3376              1318.2239
 Red. masses --      1.2420                 3.7509                 1.3593
 Frc consts  --      0.9945                 3.0789                 1.3917
 IR Inten    --      2.3316                 2.7278                 1.8783
  Atom  AN      X      Y      Z        X      Y      Z        X      Y      Z
     1   6    -0.00  -0.03   0.05    -0.00   0.17   0.04     0.00   0.06  -0.08
     2   6     0.00  -0.03   0.02     0.00   0.17  -0.19    -0.00  -0.06  -0.05
     3   6     0.00  -0.03  -0.02    -0.00  -0.17  -0.19    -0.00  -0.06   0.05
     4   6    -0.00  -0.03  -0.05     0.00  -0.17   0.04    -0.00   0.06   0.08
     5   1     0.00  -0.21   0.45    -0.00   0.04   0.43    -0.00  -0.16   0.42
     6   1    -0.00  -0.11  -0.04    -0.00  -0.06  -0.40     0.00   0.39   0.28
     7   1    -0.00  -0.11   0.04     0.00   0.06  -0.40     0.00   0.39  -0.28
     8   1    -0.00  -0.21  -0.45     0.00  -0.04   0.43    -0.00  -0.16  -0.42
     9   7     0.00   0.10  -0.00     0.00   0.00   0.22     0.00   0.00  -0.00
    10   1     0.00   0.68  -0.00    -0.00   0.00   0.25    -0.00  -0.32   0.00
                     16                     17                     18
                     A1                     B2                     A1
 Frequencies --   1437.0719              1470.6554              1517.3453
 Red. masses --      4.2747                 3.1219                 2.7676
 Frc consts  --      5.2014                 3.9782                 3.7543
 IR Inten    --      4.4608                 7.2774                 9.4420
  Atom  AN      X      Y      Z        X      Y      Z        X      Y      Z
     1   6     0.00  -0.14  -0.11    -0.00  -0.13   0.13    -0.00  -0.06   0.24
     2   6     0.00   0.30   0.16     0.00  -0.00  -0.10     0.00   0.06  -0.09
     3   6    -0.00  -0.30   0.16     0.00  -0.00   0.10    -0.00  -0.06  -0.09
     4   6     0.00   0.14  -0.11    -0.00  -0.13  -0.13     0.00   0.06   0.24
     5   1     0.00  -0.14  -0.17     0.00  -0.06  -0.04    -0.00   0.29  -0.53
     6   1    -0.00  -0.40  -0.37     0.00   0.07  -0.05    -0.00  -0.06  -0.22
     7   1     0.00   0.40  -0.37    -0.00   0.07   0.05     0.00   0.06  -0.22
     8   1     0.00   0.14  -0.17    -0.00  -0.06   0.04     0.00  -0.29  -0.53
     9   7    -0.00  -0.00  -0.01     0.00   0.30  -0.00     0.00   0.00  -0.12
    10   1     0.00   0.00  -0.02     0.00  -0.89   0.00    -0.00  -0.00  -0.14
                     19                     20                     21
                     B2                     B2                     A1
 Frequencies --   1594.7192              3247.7212              3258.9669
 Red. masses --      3.1576                 1.0879                 1.0930
 Frc consts  --      4.7313                 6.7605                 6.8395
 IR Inten    --      4.1283                 3.1911                 5.7635
  Atom  AN      X      Y      Z        X      Y      Z        X      Y      Z
     1   6    -0.00  -0.06  -0.19    -0.00  -0.02  -0.01     0.00  -0.03  -0.01
     2   6     0.00   0.08   0.21     0.00   0.03  -0.05    -0.00   0.03  -0.04
     3   6     0.00   0.08  -0.21     0.00   0.03   0.05     0.00  -0.03  -0.04
     4   6    -0.00  -0.06   0.19    -0.00  -0.02   0.01    -0.00   0.03  -0.01
     5   1    -0.00  -0.27   0.19     0.00   0.23   0.10     0.00   0.36   0.15
     6   1    -0.00  -0.37  -0.09    -0.00  -0.39   0.53     0.00  -0.35   0.47
     7   1    -0.00  -0.37   0.09    -0.00  -0.39  -0.53    -0.00   0.35   0.47
     8   1    -0.00  -0.27  -0.19    -0.00   0.23  -0.10    -0.00  -0.36   0.15
     9   7     0.00   0.10   0.00    -0.00  -0.00  -0.00     0.00   0.00   0.00
    10   1    -0.00  -0.55  -0.00     0.00  -0.00   0.00    -0.00  -0.00  -0.01
                     22                     23                     24
                     B2                     A1                     A1
 Frequencies --   3275.1574              3280.8563              3689.6563
 Red. masses --      1.0995                 1.1064                 1.0809
 Frc consts  --      6.9487                 7.0167                 8.6698
 IR Inten    --      6.9570                 0.1520                54.6435
  Atom  AN      X      Y      Z        X      Y      Z        X      Y      Z
     1   6     0.00  -0.05  -0.03    -0.00  -0.05  -0.02    -0.00  -0.00   0.00
     2   6    -0.00  -0.01   0.02     0.00  -0.02   0.03     0.00   0.00   0.00
     3   6    -0.00  -0.01  -0.02    -0.00   0.02   0.03    -0.00  -0.00   0.00
     4   6     0.00  -0.05   0.03    -0.00   0.05  -0.02    -0.00   0.00   0.00
     5   1     0.00   0.60   0.27    -0.00   0.54   0.24    -0.00   0.01   0.00
     6   1     0.00   0.14  -0.20    -0.00   0.23  -0.31    -0.00   0.00  -0.00
     7   1     0.00   0.14   0.20     0.00  -0.23  -0.31     0.00  -0.00  -0.00
     8   1     0.00   0.60  -0.27     0.00  -0.54   0.24    -0.00  -0.01   0.00
     9   7    -0.00   0.00  -0.00     0.00   0.00  -0.00     0.00  -0.00  -0.07
    10   1     0.00  -0.01   0.00    -0.00  -0.00  -0.02    -0.00   0.00   1.00

 -------------------
 - Thermochemistry -
 -------------------
 Temperature   298.150 Kelvin.  Pressure   1.00000 Atm.
 Atom     1 has atomic number  6 and mass  12.00000
 Atom     2 has atomic number  6 and mass  12.00000
 Atom     3 has atomic number  6 and mass  12.00000
 Atom     4 has atomic number  6 and mass  12.00000
 Atom     5 has atomic number  1 and mass   1.00783
 Atom     6 has atomic number  1 and mass   1.00783
 Atom     7 has atomic number  1 and mass   1.00783
 Atom     8 has atomic number  1 and mass   1.00783
 Atom     9 has atomic number  7 and mass  14.00307
 Atom    10 has atomic number  1 and mass   1.00783
 Molecular mass:    67.04220 amu.
 Principal axes and moments of inertia in atomic units:
                           1         2         3
     Eigenvalues --   197.45699 200.39352 397.85050
           X            0.00000  -0.00000   1.00000
           Y            0.00000   1.00000   0.00000
           Z            1.00000  -0.00000  -0.00000
 This molecule is an asymmetric top.
 Rotational symmetry number  2.
 Rotational temperatures (Kelvin)      0.43865     0.43222     0.21770
 Rotational constants (GHZ):           9.13992     9.00599     4.53623
 Zero-point vibrational energy     216986.4 (Joules/Mol)
                                   51.86099 (Kcal/Mol)
 Warning -- explicit consideration of   1 degrees of freedom as
           vibrations may cause significant error
 Vibrational temperatures:    660.90   906.28   922.48   977.23  1056.24
          (Kelvin)           1186.94  1260.06  1262.27  1293.12  1500.00
                             1548.22  1584.97  1677.30  1698.24  1896.63
                             2067.63  2115.95  2183.12  2294.45  4672.75
                             4688.93  4712.22  4720.42  5308.59
 
 Zero-point correction=                           0.082646 (Hartree/Particle)
 Thermal correction to Energy=                    0.086633
 Thermal correction to Enthalpy=                  0.087577
 Thermal correction to Gibbs Free Energy=         0.056893
 Sum of electronic and zero-point Energies=           -210.093695
 Sum of electronic and thermal Energies=              -210.089708
 Sum of electronic and thermal Enthalpies=            -210.088763
 Sum of electronic and thermal Free Energies=         -210.119447
 
                     E (Thermal)             CV                S
                      KCal/Mol        Cal/Mol-Kelvin    Cal/Mol-Kelvin
 Total                   54.363             14.828             64.580
 Electronic               0.000              0.000              0.000
 Translational            0.889              2.981             38.526
 Rotational               0.889              2.981             22.891
 Vibrational             52.585              8.867              3.162
 Vibration     1          0.817              1.340              0.768
                       Q            Log10(Q)             Ln(Q)
 Total Bot       0.677700D-26        -26.168962        -60.256262
 Total V=0       0.700502D+12         11.845409         27.275063
 Vib (Bot)       0.139865D-37        -37.854292        -87.162729
 Vib (Bot)    1  0.370482D+00         -0.431233         -0.992950
 Vib (V=0)       0.144570D+01          0.160079          0.368596
 Vib (V=0)    1  0.112230D+01          0.050109          0.115380
 Electronic      0.100000D+01          0.000000          0.000000
 Translational   0.215763D+08          7.333976         16.887104
 Rotational      0.224571D+05          4.351354         10.019362
                           ----------------------------
                           ! Normal Mode     1        !
 --------------------------                            --------------------------
 ! Name  Definition              Value          Relative Weight (%)             !
 --------------------------------------------------------------------------------
 ! R1    R(1,2)                  0.0                     0.0                    !
 ! R2    R(1,5)                  0.0                     0.0                    !
 ! R3    R(1,9)                  0.0                     0.0                    !
 ! R4    R(2,3)                  0.0                     0.0                    !
 ! R5    R(2,6)                  0.0                     0.0                    !
 ! R6    R(3,4)                  0.0                     0.0                    !
 ! R7    R(3,7)                  0.0                     0.0                    !
 ! R8    R(4,8)                  0.0                     0.0                    !
 ! R9    R(4,9)                  0.0                     0.0                    !
 ! R10   R(9,10)                 0.0                     0.0                    !
 ! A1    A(2,1,5)                0.0                     0.0                    !
 ! A2    A(2,1,9)                0.0                     0.0                    !
 ! A3    A(5,1,9)                0.0                     0.0                    !
 ! A4    A(1,2,3)                0.0                     0.0                    !
 ! A5    A(1,2,6)                0.0                     0.0                    !
 ! A6    A(3,2,6)                0.0                     0.0                    !
 ! A7    A(2,3,4)                0.0                     0.0                    !
 ! A8    A(2,3,7)                0.0                     0.0                    !
 ! A9    A(4,3,7)                0.0                     0.0                    !
 ! A10   A(3,4,8)                0.0                     0.0                    !
 ! A11   A(3,4,9)                0.0                     0.0                    !
 ! A12   A(8,4,9)                0.0                     0.0                    !
 ! A13   A(1,9,4)                0.0                     0.0                    !
 ! A14   A(1,9,10)               0.0                     0.0                    !
 ! A15   A(4,9,10)               0.0                     0.0                    !
 ! D1    D(5,1,2,3)             -0.0366                  0.8                    !
 ! D2    D(5,1,2,6)             -0.0947                  2.1                    !
 ! D3    D(9,1,2,3)             -0.0987                  2.2                    !
 ! D4    D(9,1,2,6)             -0.1568                  3.5                    !
 ! D5    D(2,1,9,4)              0.1638                  3.6                    !
 ! D6    D(2,1,9,10)            -0.7443                 16.5                    !
 ! D7    D(5,1,9,4)              0.1092                  2.4                    !
 ! D8    D(5,1,9,10)            -0.799                  17.7                    !
 ! D9    D(1,2,3,4)              0.0                     0.0                    !
 ! D10   D(1,2,3,7)             -0.0589                  1.3                    !
 ! D11   D(6,2,3,4)              0.0589                  1.3                    !
 ! D12   D(6,2,3,7)              0.0                     0.0                    !
 ! D13   D(2,3,4,8)              0.0366                  0.8                    !
 ! D14   D(2,3,4,9)              0.0987                  2.2                    !
 ! D15   D(7,3,4,8)              0.0947                  2.1                    !
 ! D16   D(7,3,4,9)              0.1568                  3.5                    !
 ! D17   D(3,4,9,1)             -0.1638                  3.6                    !
 ! D18   D(3,4,9,10)             0.7443                 16.5                    !
 ! D19   D(8,4,9,1)             -0.1092                  2.4                    !
 ! D20   D(8,4,9,10)             0.799                  17.7                    !
 --------------------------------------------------------------------------------
                           ----------------------------
                           ! Normal Mode     2        !
 --------------------------                            --------------------------
 ! Name  Definition              Value          Relative Weight (%)             !
 --------------------------------------------------------------------------------
 ! R1    R(1,2)                  0.0                     0.0                    !
 ! R2    R(1,5)                  0.0                     0.0                    !
 ! R3    R(1,9)                  0.0                     0.0                    !
 ! R4    R(2,3)                  0.0                     0.0                    !
 ! R5    R(2,6)                  0.0                     0.0                    !
 ! R6    R(3,4)                  0.0                     0.0                    !
 ! R7    R(3,7)                  0.0                     0.0                    !
 ! R8    R(4,8)                  0.0                     0.0                    !
 ! R9    R(4,9)                  0.0                     0.0                    !
 ! R10   R(9,10)                 0.0                     0.0                    !
 ! A1    A(2,1,5)                0.0                     0.0                    !
 ! A2    A(2,1,9)                0.0                     0.0                    !
 ! A3    A(5,1,9)                0.0                     0.0                    !
 ! A4    A(1,2,3)                0.0                     0.0                    !
 ! A5    A(1,2,6)                0.0                     0.0                    !
 ! A6    A(3,2,6)                0.0                     0.0                    !
 ! A7    A(2,3,4)                0.0                     0.0                    !
 ! A8    A(2,3,7)                0.0                     0.0                    !
 ! A9    A(4,3,7)                0.0                     0.0                    !
 ! A10   A(3,4,8)                0.0                     0.0                    !
 ! A11   A(3,4,9)                0.0                     0.0                    !
 ! A12   A(8,4,9)                0.0                     0.0                    !
 ! A13   A(1,9,4)                0.0                     0.0                    !
 ! A14   A(1,9,10)               0.0                     0.0                    !
 ! A15   A(4,9,10)               0.0                     0.0                    !
 ! D1    D(5,1,2,3)              0.2565                  7.6                    !
 ! D2    D(5,1,2,6)             -0.02                    0.6                    !
 ! D3    D(9,1,2,3)              0.4032                 12.0                    !
 ! D4    D(9,1,2,6)              0.1266                  3.8                    !
 ! D5    D(2,1,9,4)             -0.1591                  4.7                    !
 ! D6    D(2,1,9,10)            -0.1591                  4.7                    !
 ! D7    D(5,1,9,4)             -0.0301                  0.9                    !
 ! D8    D(5,1,9,10)            -0.0301                  0.9                    !
 ! D9    D(1,2,3,4)             -0.5018                 14.9                    !
 ! D10   D(1,2,3,7)             -0.2215                  6.6                    !
 ! D11   D(6,2,3,4)             -0.2215                  6.6                    !
 ! D12   D(6,2,3,7)              0.0587                  1.7                    !
 ! D13   D(2,3,4,8)              0.2565                  7.6                    !
 ! D14   D(2,3,4,9)              0.4032                 12.0                    !
 ! D15   D(7,3,4,8)             -0.02                    0.6                    !
 ! D16   D(7,3,4,9)              0.1266                  3.8                    !
 ! D17   D(3,4,9,1)             -0.1591                  4.7                    !
 ! D18   D(3,4,9,10)            -0.1591                  4.7                    !
 ! D19   D(8,4,9,1)             -0.0301                  0.9                    !
 ! D20   D(8,4,9,10)            -0.0301                  0.9                    !
 --------------------------------------------------------------------------------
                           ----------------------------
                           ! Normal Mode     3        !
 --------------------------                            --------------------------
 ! Name  Definition              Value          Relative Weight (%)             !
 --------------------------------------------------------------------------------
 ! R1    R(1,2)                  0.0                     0.0                    !
 ! R2    R(1,5)                  0.0                     0.0                    !
 ! R3    R(1,9)                  0.0                     0.0                    !
 ! R4    R(2,3)                  0.0                     0.0                    !
 ! R5    R(2,6)                  0.0                     0.0                    !
 ! R6    R(3,4)                  0.0                     0.0                    !
 ! R7    R(3,7)                  0.0                     0.0                    !
 ! R8    R(4,8)                  0.0                     0.0                    !
 ! R9    R(4,9)                  0.0                     0.0                    !
 ! R10   R(9,10)                 0.0                     0.0                    !
 ! A1    A(2,1,5)                0.0                     0.0                    !
 ! A2    A(2,1,9)                0.0                     0.0                    !
 ! A3    A(5,1,9)                0.0                     0.0                    !
 ! A4    A(1,2,3)                0.0                     0.0                    !
 ! A5    A(1,2,6)                0.0                     0.0                    !
 ! A6    A(3,2,6)                0.0                     0.0                    !
 ! A7    A(2,3,4)                0.0                     0.0                    !
 ! A8    A(2,3,7)                0.0                     0.0                    !
 ! A9    A(4,3,7)                0.0                     0.0                    !
 ! A10   A(3,4,8)                0.0                     0.0                    !
 ! A11   A(3,4,9)                0.0                     0.0                    !
 ! A12   A(8,4,9)                0.0                     0.0                    !
 ! A13   A(1,9,4)                0.0                     0.0                    !
 ! A14   A(1,9,10)               0.0                     0.0                    !
 ! A15   A(4,9,10)               0.0                     0.0                    !
 ! D1    D(5,1,2,3)              0.0695                  1.7                    !
 ! D2    D(5,1,2,6)             -0.1518                  3.8                    !
 ! D3    D(9,1,2,3)              0.2229                  5.6                    !
 ! D4    D(9,1,2,6)              0.0015                  0.0                    !
 ! D5    D(2,1,9,4)             -0.3698                  9.3                    !
 ! D6    D(2,1,9,10)            -0.424                  10.7                    !
 ! D7    D(5,1,9,4)             -0.2349                  5.9                    !
 ! D8    D(5,1,9,10)            -0.289                   7.3                    !
 ! D9    D(1,2,3,4)              0.0                     0.0                    !
 ! D10   D(1,2,3,7)             -0.2243                  5.6                    !
 ! D11   D(6,2,3,4)              0.2243                  5.6                    !
 ! D12   D(6,2,3,7)              0.0                     0.0                    !
 ! D13   D(2,3,4,8)             -0.0695                  1.7                    !
 ! D14   D(2,3,4,9)             -0.2229                  5.6                    !
 ! D15   D(7,3,4,8)              0.1518                  3.8                    !
 ! D16   D(7,3,4,9)             -0.0015                  0.0                    !
 ! D17   D(3,4,9,1)              0.3698                  9.3                    !
 ! D18   D(3,4,9,10)             0.424                  10.7                    !
 ! D19   D(8,4,9,1)              0.2349                  5.9                    !
 ! D20   D(8,4,9,10)             0.289                   7.3                    !
 --------------------------------------------------------------------------------
                           ----------------------------
                           ! Normal Mode     4        !
 --------------------------                            --------------------------
 ! Name  Definition              Value          Relative Weight (%)             !
 --------------------------------------------------------------------------------
 ! R1    R(1,2)                  0.0                     0.0                    !
 ! R2    R(1,5)                  0.0                     0.0                    !
 ! R3    R(1,9)                  0.0                     0.0                    !
 ! R4    R(2,3)                  0.0                     0.0                    !
 ! R5    R(2,6)                  0.0                     0.0                    !
 ! R6    R(3,4)                  0.0                     0.0                    !
 ! R7    R(3,7)                  0.0                     0.0                    !
 ! R8    R(4,8)                  0.0                     0.0                    !
 ! R9    R(4,9)                  0.0                     0.0                    !
 ! R10   R(9,10)                 0.0                     0.0                    !
 ! A1    A(2,1,5)                0.0                     0.0                    !
 ! A2    A(2,1,9)                0.0                     0.0                    !
 ! A3    A(5,1,9)                0.0                     0.0                    !
 ! A4    A(1,2,3)                0.0                     0.0                    !
 ! A5    A(1,2,6)                0.0                     0.0                    !
 ! A6    A(3,2,6)                0.0                     0.0                    !
 ! A7    A(2,3,4)                0.0                     0.0                    !
 ! A8    A(2,3,7)                0.0                     0.0                    !
 ! A9    A(4,3,7)                0.0                     0.0                    !
 ! A10   A(3,4,8)                0.0                     0.0                    !
 ! A11   A(3,4,9)                0.0                     0.0                    !
 ! A12   A(8,4,9)                0.0                     0.0                    !
 ! A13   A(1,9,4)                0.0                     0.0                    !
 ! A14   A(1,9,10)               0.0                     0.0                    !
 ! A15   A(4,9,10)               0.0                     0.0                    !
 ! D1    D(5,1,2,3)             -0.5344                 10.3                    !
 ! D2    D(5,1,2,6)             -0.3676                  7.1                    !
 ! D3    D(9,1,2,3)              0.0385                  0.7                    !
 ! D4    D(9,1,2,6)              0.2053                  4.0                    !
 ! D5    D(2,1,9,4)             -0.0152                  0.3                    !
 ! D6    D(2,1,9,10)            -0.0152                  0.3                    !
 ! D7    D(5,1,9,4)              0.4889                  9.4                    !
 ! D8    D(5,1,9,10)             0.4889                  9.4                    !
 ! D9    D(1,2,3,4)             -0.0479                  0.9                    !
 ! D10   D(1,2,3,7)             -0.2169                  4.2                    !
 ! D11   D(6,2,3,4)             -0.2169                  4.2                    !
 ! D12   D(6,2,3,7)             -0.3859                  7.5                    !
 ! D13   D(2,3,4,8)             -0.5344                 10.3                    !
 ! D14   D(2,3,4,9)              0.0385                  0.7                    !
 ! D15   D(7,3,4,8)             -0.3676                  7.1                    !
 ! D16   D(7,3,4,9)              0.2053                  4.0                    !
 ! D17   D(3,4,9,1)             -0.0152                  0.3                    !
 ! D18   D(3,4,9,10)            -0.0152                  0.3                    !
 ! D19   D(8,4,9,1)              0.4889                  9.4                    !
 ! D20   D(8,4,9,10)             0.4889                  9.4                    !
 --------------------------------------------------------------------------------
                           ----------------------------
                           ! Normal Mode     5        !
 --------------------------                            --------------------------
 ! Name  Definition              Value          Relative Weight (%)             !
 --------------------------------------------------------------------------------
 ! R1    R(1,2)                  0.0                     0.0                    !
 ! R2    R(1,5)                  0.0                     0.0                    !
 ! R3    R(1,9)                  0.0                     0.0                    !
 ! R4    R(2,3)                  0.0                     0.0                    !
 ! R5    R(2,6)                  0.0                     0.0                    !
 ! R6    R(3,4)                  0.0                     0.0                    !
 ! R7    R(3,7)                  0.0                     0.0                    !
 ! R8    R(4,8)                  0.0                     0.0                    !
 ! R9    R(4,9)                  0.0                     0.0                    !
 ! R10   R(9,10)                 0.0                     0.0                    !
 ! A1    A(2,1,5)                0.0                     0.0                    !
 ! A2    A(2,1,9)                0.0                     0.0                    !
 ! A3    A(5,1,9)                0.0                     0.0                    !
 ! A4    A(1,2,3)                0.0                     0.0                    !
 ! A5    A(1,2,6)                0.0                     0.0                    !
 ! A6    A(3,2,6)                0.0                     0.0                    !
 ! A7    A(2,3,4)                0.0                     0.0                    !
 ! A8    A(2,3,7)                0.0                     0.0                    !
 ! A9    A(4,3,7)                0.0                     0.0                    !
 ! A10   A(3,4,8)                0.0                     0.0                    !
 ! A11   A(3,4,9)                0.0                     0.0                    !
 ! A12   A(8,4,9)                0.0                     0.0                    !
 ! A13   A(1,9,4)                0.0                     0.0                    !
 ! A14   A(1,9,10)               0.0                     0.0                    !
 ! A15   A(4,9,10)               0.0                     0.0                    !
 ! D1    D(5,1,2,3)             -0.3853                  9.9                    !
 ! D2    D(5,1,2,6)             -0.0957                  2.5                    !
 ! D3    D(9,1,2,3)              0.0533                  1.4                    !
 ! D4    D(9,1,2,6)              0.3429                  8.8                    !
 ! D5    D(2,1,9,4)             -0.0884                  2.3                    !
 ! D6    D(2,1,9,10)            -0.0869                  2.2                    !
 ! D7    D(5,1,9,4)              0.2975                  7.7                    !
 ! D8    D(5,1,9,10)             0.299                   7.7                    !
 ! D9    D(1,2,3,4)              0.0                     0.0                    !
 ! D10   D(1,2,3,7)              0.2935                  7.6                    !
 ! D11   D(6,2,3,4)             -0.2935                  7.6                    !
 ! D12   D(6,2,3,7)              0.0                     0.0                    !
 ! D13   D(2,3,4,8)              0.3853                  9.9                    !
 ! D14   D(2,3,4,9)             -0.0533                  1.4                    !
 ! D15   D(7,3,4,8)              0.0957                  2.5                    !
 ! D16   D(7,3,4,9)             -0.3429                  8.8                    !
 ! D17   D(3,4,9,1)              0.0884                  2.3                    !
 ! D18   D(3,4,9,10)             0.0869                  2.2                    !
 ! D19   D(8,4,9,1)             -0.2975                  7.7                    !
 ! D20   D(8,4,9,10)            -0.299                   7.7                    !
 --------------------------------------------------------------------------------
                           ----------------------------
                           ! Normal Mode     6        !
 --------------------------                            --------------------------
 ! Name  Definition              Value          Relative Weight (%)             !
 --------------------------------------------------------------------------------
 ! R1    R(1,2)                  0.0                     0.0                    !
 ! R2    R(1,5)                  0.0                     0.0                    !
 ! R3    R(1,9)                  0.0                     0.0                    !
 ! R4    R(2,3)                  0.0                     0.0                    !
 ! R5    R(2,6)                  0.0                     0.0                    !
 ! R6    R(3,4)                  0.0                     0.0                    !
 ! R7    R(3,7)                  0.0                     0.0                    !
 ! R8    R(4,8)                  0.0                     0.0                    !
 ! R9    R(4,9)                  0.0                     0.0                    !
 ! R10   R(9,10)                 0.0                     0.0                    !
 ! A1    A(2,1,5)                0.0                     0.0                    !
 ! A2    A(2,1,9)                0.0                     0.0                    !
 ! A3    A(5,1,9)                0.0                     0.0                    !
 ! A4    A(1,2,3)                0.0                     0.0                    !
 ! A5    A(1,2,6)                0.0                     0.0                    !
 ! A6    A(3,2,6)                0.0                     0.0                    !
 ! A7    A(2,3,4)                0.0                     0.0                    !
 ! A8    A(2,3,7)                0.0                     0.0                    !
 ! A9    A(4,3,7)                0.0                     0.0                    !
 ! A10   A(3,4,8)                0.0                     0.0                    !
 ! A11   A(3,4,9)                0.0                     0.0                    !
 ! A12   A(8,4,9)                0.0                     0.0                    !
 ! A13   A(1,9,4)                0.0                     0.0                    !
 ! A14   A(1,9,10)               0.0                     0.0                    !
 ! A15   A(4,9,10)               0.0                     0.0                    !
 ! D1    D(5,1,2,3)              0.3682                  6.5                    !
 ! D2    D(5,1,2,6)              0.7702                 13.6                    !
 ! D3    D(9,1,2,3)             -0.0541                  1.0                    !
 ! D4    D(9,1,2,6)              0.3479                  6.1                    !
 ! D5    D(2,1,9,4)              0.0897                  1.6                    !
 ! D6    D(2,1,9,10)            -0.0739                  1.3                    !
 ! D7    D(5,1,9,4)             -0.2818                  5.0                    !
 ! D8    D(5,1,9,10)            -0.4455                  7.8                    !
 ! D9    D(1,2,3,4)              0.0                     0.0                    !
 ! D10   D(1,2,3,7)              0.4074                  7.2                    !
 ! D11   D(6,2,3,4)             -0.4074                  7.2                    !
 ! D12   D(6,2,3,7)              0.0                     0.0                    !
 ! D13   D(2,3,4,8)             -0.3682                  6.5                    !
 ! D14   D(2,3,4,9)              0.0541                  1.0                    !
 ! D15   D(7,3,4,8)             -0.7702                 13.6                    !
 ! D16   D(7,3,4,9)             -0.3479                  6.1                    !
 ! D17   D(3,4,9,1)             -0.0897                  1.6                    !
 ! D18   D(3,4,9,10)             0.0739                  1.3                    !
 ! D19   D(8,4,9,1)              0.2818                  5.0                    !
 ! D20   D(8,4,9,10)             0.4455                  7.8                    !
 --------------------------------------------------------------------------------
                           ----------------------------
                           ! Normal Mode     7        !
 --------------------------                            --------------------------
 ! Name  Definition              Value          Relative Weight (%)             !
 --------------------------------------------------------------------------------
 ! R1    R(1,2)                  0.0238                  0.8                    !
 ! R2    R(1,5)                  0.0003                  0.0                    !
 ! R3    R(1,9)                 -0.0387                  1.4                    !
 ! R4    R(2,3)                  0.0                     0.0                    !
 ! R5    R(2,6)                 -0.0022                  0.1                    !
 ! R6    R(3,4)                 -0.0238                  0.8                    !
 ! R7    R(3,7)                  0.0022                  0.1                    !
 ! R8    R(4,8)                 -0.0003                  0.0                    !
 ! R9    R(4,9)                  0.0387                  1.4                    !
 ! R10   R(9,10)                 0.0                     0.0                    !
 ! A1    A(2,1,5)                0.0033                  0.1                    !
 ! A2    A(2,1,9)               -0.2286                  8.1                    !
 ! A3    A(5,1,9)                0.2253                  8.0                    !
 ! A4    A(1,2,3)                0.3606                 12.7                    !
 ! A5    A(1,2,6)               -0.2321                  8.2                    !
 ! A6    A(3,2,6)               -0.1285                  4.5                    !
 ! A7    A(2,3,4)               -0.3606                 12.7                    !
 ! A8    A(2,3,7)                0.1285                  4.5                    !
 ! A9    A(4,3,7)                0.2321                  8.2                    !
 ! A10   A(3,4,8)               -0.0033                  0.1                    !
 ! A11   A(3,4,9)                0.2286                  8.1                    !
 ! A12   A(8,4,9)               -0.2253                  8.0                    !
 ! A13   A(1,9,4)                0.0                     0.0                    !
 ! A14   A(1,9,10)               0.1712                  6.1                    !
 ! A15   A(4,9,10)              -0.1712                  6.1                    !
 ! D1    D(5,1,2,3)              0.0                     0.0                    !
 ! D2    D(5,1,2,6)              0.0                     0.0                    !
[...]
      2   0.000000D+00  0.000000D+00  0.000000D+00  0.000000D+00  0.000000D+00
      3   0.000000D+00  0.000000D+00  0.000000D+00  0.000000D+00  0.000000D+00
      4   0.757729D+00 -0.664272D+00 -0.255274D+00  0.666947D+00  0.107594D+01
      5   0.000000D+00  0.000000D+00  0.000000D+00  0.000000D+00  0.000000D+00
      6   0.000000D+00  0.000000D+00  0.000000D+00  0.000000D+00  0.000000D+00
      7   0.249610D+00  0.670203D+00 -0.790318D+00  0.314809D+00 -0.114571D+01
      8   0.000000D+00  0.000000D+00  0.000000D+00  0.000000D+00  0.000000D+00
      9   0.000000D+00  0.000000D+00  0.000000D+00  0.000000D+00  0.000000D+00
     10  -0.403902D+00 -0.408998D+00  0.642525D+00 -0.408998D+00  0.642525D+00
     11   0.000000D+00  0.000000D+00  0.000000D+00  0.000000D+00  0.000000D+00
     12   0.000000D+00  0.000000D+00  0.000000D+00  0.000000D+00  0.000000D+00
 Iteration  1 RMS(Cart)=  0.00027224 RMS(Int)=  0.00000009
 Iteration  2 RMS(Cart)=  0.00000009 RMS(Int)=  0.00000000
 Input Coordinates in SymCor: 
                 1             2             3             4             5 
      1   0.000000D+00  0.000000D+00  0.000000D+00  0.000000D+00  0.000000D+00
      2   0.212609D+01  0.134646D+01 -0.134646D+01 -0.212609D+01  0.399371D+01
      3   0.626220D+00 -0.185821D+01 -0.185821D+01  0.626220D+00  0.144789D+01
                 6             7             8             9            10 
      1   0.000000D+00  0.000000D+00  0.000000D+00  0.000000D+00  0.000000D+00
      2   0.257123D+01 -0.257123D+01 -0.399371D+01  0.000000D+00  0.000000D+00
      3  -0.349282D+01 -0.349282D+01  0.144789D+01  0.212066D+01  0.402298D+01
 Symmetrized Coordinates in SymCor: 
                 1             2             3             4             5 
      1   0.000000D+00  0.000000D+00  0.000000D+00  0.000000D+00  0.000000D+00
      2   0.212609D+01  0.134646D+01 -0.134646D+01 -0.212609D+01  0.399371D+01
      3   0.626220D+00 -0.185821D+01 -0.185821D+01  0.626220D+00  0.144789D+01
                 6             7             8             9            10 
      1   0.000000D+00  0.000000D+00  0.000000D+00  0.000000D+00  0.000000D+00
      2   0.257123D+01 -0.257123D+01 -0.399371D+01  0.000000D+00  0.000000D+00
      3  -0.349282D+01 -0.349282D+01  0.144789D+01  0.212066D+01  0.402298D+01
 Final Coordinates in SymCor: 
                 1             2             3             4             5 
      1   0.000000D+00  0.000000D+00  0.000000D+00  0.000000D+00  0.000000D+00
      2   0.212609D+01  0.134646D+01 -0.134646D+01 -0.212609D+01  0.399371D+01
      3   0.626220D+00 -0.185821D+01 -0.185821D+01  0.626220D+00  0.144789D+01
                 6             7             8             9            10 
      1   0.000000D+00  0.000000D+00  0.000000D+00  0.000000D+00  0.000000D+00
      2   0.257123D+01 -0.257123D+01 -0.399371D+01  0.000000D+00  0.000000D+00
      3  -0.349282D+01 -0.349282D+01  0.144789D+01  0.212066D+01  0.402298D+01
 ClnCor:  largest displacement from symmetrization is 5.19D-12 for atom     8.
 Variable       Old X    -DE/DX   Delta X   Delta X   Delta X     New X
                                 (Linear)    (Quad)   (Total)
    R1        2.60399  -0.00005   0.00000  -0.00011  -0.00011   2.60388
    R2        2.04038   0.00000   0.00000   0.00001   0.00001   2.04038
    R3        2.59860   0.00006   0.00000   0.00017   0.00017   2.59877
    R4        2.69295   0.00001   0.00000  -0.00003  -0.00003   2.69292
    R5        2.04256  -0.00000   0.00000  -0.00000  -0.00000   2.04256
    R6        2.60399  -0.00005   0.00000  -0.00011  -0.00011   2.60388
    R7        2.04256  -0.00000   0.00000  -0.00000  -0.00000   2.04256
    R8        2.04038   0.00000   0.00000   0.00001   0.00001   2.04038
    R9        2.59860   0.00006   0.00000   0.00017   0.00017   2.59877
   R10        1.90231   0.00000   0.00000   0.00000   0.00000   1.90231
    A1        2.28909   0.00003   0.00000   0.00025   0.00025   2.28934
    A2        1.87939  -0.00001   0.00000   0.00001   0.00001   1.87940
    A3        2.11470  -0.00002   0.00000  -0.00025  -0.00025   2.11445
    A4        1.87483   0.00002   0.00000   0.00004   0.00004   1.87487
    A5        2.19518  -0.00008   0.00000  -0.00070  -0.00070   2.19448
    A6        2.21318   0.00006   0.00000   0.00066   0.00066   2.21383
    A7        1.87483   0.00002   0.00000   0.00004   0.00004   1.87487
    A8        2.21318   0.00006   0.00000   0.00066   0.00066   2.21383
    A9        2.19518  -0.00008   0.00000  -0.00070  -0.00070   2.19448
   A10        2.28909   0.00003   0.00000   0.00025   0.00025   2.28934
   A11        1.87939  -0.00001   0.00000   0.00001   0.00001   1.87940
   A12        2.11470  -0.00002   0.00000  -0.00025  -0.00025   2.11445
   A13        1.91634  -0.00002   0.00000  -0.00010  -0.00010   1.91624
   A14        2.18342   0.00001   0.00000   0.00005   0.00005   2.18347
   A15        2.18342   0.00001   0.00000   0.00005   0.00005   2.18347
    D1        3.14159  -0.00000   0.00000  -0.00000   0.00000   3.14159
    D2       -0.00000   0.00000   0.00000   0.00000   0.00000   0.00000
    D3        0.00000  -0.00000   0.00000  -0.00000   0.00000   0.00000
    D4        3.14159   0.00000   0.00000   0.00000   0.00000   3.14159
    D5       -0.00000   0.00000   0.00000   0.00000   0.00000   0.00000
    D6        3.14159   0.00000   0.00000  -0.00000   0.00000   3.14159
    D7        3.14159   0.00000   0.00000   0.00000   0.00000   3.14159
    D8       -0.00000   0.00000   0.00000   0.00000   0.00000   0.00000
    D9       -0.00000  -0.00000   0.00000  -0.00000   0.00000   0.00000
   D10        3.14159   0.00000   0.00000   0.00000   0.00000   3.14159
   D11        3.14159  -0.00000   0.00000  -0.00000   0.00000   3.14159
   D12        0.00000  -0.00000   0.00000  -0.00000   0.00000   0.00000
   D13        3.14159   0.00000   0.00000   0.00000   0.00000   3.14159
   D14       -0.00000   0.00000   0.00000   0.00000   0.00000   0.00000
   D15        0.00000  -0.00000   0.00000  -0.00000   0.00000   0.00000
   D16        3.14159  -0.00000   0.00000  -0.00000   0.00000   3.14159
   D17        0.00000  -0.00000   0.00000  -0.00000   0.00000   0.00000
   D18        3.14159  -0.00000   0.00000   0.00000   0.00000   3.14159
   D19        3.14159  -0.00000   0.00000  -0.00000   0.00000   3.14159
   D20        0.00000   0.00000   0.00000   0.00000   0.00000   0.00000
         Item               Value     Threshold  Converged?
 Maximum Force            0.000079     0.000450     YES
 RMS     Force            0.000028     0.000300     YES
 Maximum Displacement     0.001055     0.001800     YES
 RMS     Displacement     0.000272     0.001200     YES
 Predicted change in Energy=-1.267932D-07
 Optimization completed.
    -- Stationary point found.
                           ----------------------------
                           !   Optimized Parameters   !
                           ! (Angstroms and Degrees)  !
 --------------------------                            --------------------------
 ! Name  Definition              Value          Derivative Info.                !
 --------------------------------------------------------------------------------
 ! R1    R(1,2)                  1.378          -DE/DX =   -0.0001              !
 ! R2    R(1,5)                  1.0797         -DE/DX =    0.0                 !
 ! R3    R(1,9)                  1.3751         -DE/DX =    0.0001              !
 ! R4    R(2,3)                  1.425          -DE/DX =    0.0                 !
 ! R5    R(2,6)                  1.0809         -DE/DX =    0.0                 !
 ! R6    R(3,4)                  1.378          -DE/DX =   -0.0001              !
 ! R7    R(3,7)                  1.0809         -DE/DX =    0.0                 !
 ! R8    R(4,8)                  1.0797         -DE/DX =    0.0                 !
 ! R9    R(4,9)                  1.3751         -DE/DX =    0.0001              !
 ! R10   R(9,10)                 1.0067         -DE/DX =    0.0                 !
 ! A1    A(2,1,5)              131.1554         -DE/DX =    0.0                 !
 ! A2    A(2,1,9)              107.6812         -DE/DX =    0.0                 !
 ! A3    A(5,1,9)              121.1634         -DE/DX =    0.0                 !
 ! A4    A(1,2,3)              107.4197         -DE/DX =    0.0                 !
 ! A5    A(1,2,6)              125.7747         -DE/DX =   -0.0001              !
 ! A6    A(3,2,6)              126.8056         -DE/DX =    0.0001              !
 ! A7    A(2,3,4)              107.4197         -DE/DX =    0.0                 !
 ! A8    A(2,3,7)              126.8056         -DE/DX =    0.0001              !
 ! A9    A(4,3,7)              125.7747         -DE/DX =   -0.0001              !
 ! A10   A(3,4,8)              131.1554         -DE/DX =    0.0                 !
 ! A11   A(3,4,9)              107.6812         -DE/DX =    0.0                 !
 ! A12   A(8,4,9)              121.1634         -DE/DX =    0.0                 !
 ! A13   A(1,9,4)              109.7984         -DE/DX =    0.0                 !
 ! A14   A(1,9,10)             125.1008         -DE/DX =    0.0                 !
 ! A15   A(4,9,10)             125.1008         -DE/DX =    0.0                 !
 ! D1    D(5,1,2,3)            180.0            -DE/DX =    0.0                 !
 ! D2    D(5,1,2,6)              0.0            -DE/DX =    0.0                 !
 ! D3    D(9,1,2,3)              0.0            -DE/DX =    0.0                 !
 ! D4    D(9,1,2,6)            180.0            -DE/DX =    0.0                 !
 ! D5    D(2,1,9,4)              0.0            -DE/DX =    0.0                 !
 ! D6    D(2,1,9,10)           180.0            -DE/DX =    0.0                 !
 ! D7    D(5,1,9,4)            180.0            -DE/DX =    0.0                 !
 ! D8    D(5,1,9,10)             0.0            -DE/DX =    0.0                 !
 ! D9    D(1,2,3,4)              0.0            -DE/DX =    0.0                 !
 ! D10   D(1,2,3,7)            180.0            -DE/DX =    0.0                 !
 ! D11   D(6,2,3,4)            180.0            -DE/DX =    0.0                 !
 ! D12   D(6,2,3,7)              0.0            -DE/DX =    0.0                 !
 ! D13   D(2,3,4,8)            180.0            -DE/DX =    0.0                 !
 ! D14   D(2,3,4,9)              0.0            -DE/DX =    0.0                 !
 ! D15   D(7,3,4,8)              0.0            -DE/DX =    0.0                 !
 ! D16   D(7,3,4,9)            180.0            -DE/DX =    0.0                 !
 ! D17   D(3,4,9,1)              0.0            -DE/DX =    0.0                 !
 ! D18   D(3,4,9,10)           180.0            -DE/DX =    0.0                 !
 ! D19   D(8,4,9,1)            180.0            -DE/DX =    0.0                 !
 ! D20   D(8,4,9,10)             0.0            -DE/DX =    0.0                 !
 --------------------------------------------------------------------------------
 GradGradGradGradGradGradGradGradGradGradGradGradGradGradGradGradGradGrad

 Leave Link  103 at Sat Aug 10 16:33:51 2019, MaxMem=  4294967296 cpu:               0.8 elap:               0.1

 ----------------------------------------------------------------------

 Electric dipole moment (input orientation):
 (Debye = 10**-18 statcoulomb cm , SI units = C m)
                  (au)            (Debye)         (10**-30 SI)
   Tot        0.748189D+00      0.190171D+01      0.634341D+01
   x          0.000000D+00      0.000000D+00      0.000000D+00
   y          0.000000D+00      0.000000D+00      0.000000D+00
   z          0.748189D+00      0.190171D+01      0.634341D+01

 Dipole polarizability, Alpha (input orientation).
 (esu units = cm**3 , SI units = C**2 m**2 J**-1)
 Alpha(0;0):
               (au)            (10**-24 esu)      (10**-40 SI)
   iso        0.412079D+02      0.610639D+01      0.679427D+01
   aniso      0.344666D+02      0.510743D+01      0.568278D+01
   xx         0.182348D+02      0.270212D+01      0.300651D+01
   yx         0.000000D+00      0.000000D+00      0.000000D+00
   yy         0.530935D+02      0.786765D+01      0.875394D+01
   zx         0.000000D+00      0.000000D+00      0.000000D+00
   zy         0.000000D+00      0.000000D+00      0.000000D+00
   zz         0.522955D+02      0.774939D+01      0.862236D+01

 ----------------------------------------------------------------------

 Dipole orientation:
     6         -0.00000000          2.12602504          0.62655381
     6         -0.00000000          1.34647333         -1.85801085
     6         -0.00000000         -1.34647333         -1.85801085
     6         -0.00000000         -2.12602504          0.62655381
     1         -0.00000000          3.99380955          1.44784391
     1         -0.00000000          2.57017493         -3.49343086
     1         -0.00000000         -2.57017493         -3.49343086
     1         -0.00000000         -3.99380955          1.44784391
     7          0.00000000          0.00000000          2.12079428
     1          0.00000000          0.00000000          4.02310409

 Electric dipole moment (dipole orientation):
 (Debye = 10**-18 statcoulomb cm , SI units = C m)
                  (au)            (Debye)         (10**-30 SI)
   Tot        0.748189D+00      0.190171D+01      0.634341D+01
   x          0.000000D+00      0.000000D+00      0.000000D+00
   y          0.000000D+00      0.000000D+00      0.000000D+00
   z          0.748189D+00      0.190171D+01      0.634341D+01

 Dipole polarizability, Alpha (dipole orientation).
 (esu units = cm**3 , SI units = C**2 m**2 J**-1)
 Alpha(0;0):
               (au)            (10**-24 esu)      (10**-40 SI)
   iso        0.412079D+02      0.610639D+01      0.679427D+01
   aniso      0.344666D+02      0.510743D+01      0.568278D+01
   xx         0.182348D+02      0.270212D+01      0.300651D+01
   yx         0.000000D+00      0.000000D+00      0.000000D+00
   yy         0.530935D+02      0.786765D+01      0.875394D+01
   zx         0.000000D+00      0.000000D+00      0.000000D+00
   zy         0.000000D+00      0.000000D+00      0.000000D+00
   zz         0.522955D+02      0.774939D+01      0.862236D+01

 ----------------------------------------------------------------------

 Test job not archived.
 1\1\NSC-N1079\Freq\RB3LYP\6-31G(d,p)\C4H5N1\X_KJEJO\10-Aug-2019\0\\# f
 req(intmodes) iop(1/33=3) b3lyp/6-31g(d,p) geom=connectivity iop(7/75=
 -1)\\name\\0,1\C,0.,1.125044,0.331558\C,0.,0.712523,-0.983217\C,0.,-0.
 712523,-0.983217\C,0.,-1.125044,0.331558\H,0.,2.113433,0.766166\H,0.,1
 .360078,-1.848644\H,0.,-1.360078,-1.848644\H,0.,-2.113433,0.766166\N,0
 .,0.,1.122276\H,0.,0.,2.128935\\Version=ES64L-G16RevB.01\State=1-A1\HF
 =-210.1763404\RMSD=4.929e-09\RMSF=5.226e-05\ZeroPoint=0.0826457\Therma
 l=0.0866328\Dipole=0.,0.,0.7481886\DipoleDeriv=-0.1240895,0.,0.,0.,-0.
 0674182,-0.1871054,0.,-0.0492108,0.3060059,-0.1926568,0.,0.,0.,0.02354
 85,-0.0624248,0.,-0.0456277,-0.0944104,-0.1926568,0.,0.,0.,0.0235486,0
 .0624248,0.,0.0456277,-0.0944104,-0.1240895,0.,0.,0.,-0.0674182,0.1871
 054,0.,0.0492108,0.3060059,0.1574328,0.,0.,0.,-0.0258406,-0.0423,0.,-0
 .0644581,0.0360202,0.1377122,0.,0.,0.,0.0071628,0.0837522,0.,0.0768447
 ,-0.0088592,0.1377122,0.,0.,0.,0.0071628,-0.0837522,0.,-0.0768447,-0.0
 088592,0.1574328,0.,0.,0.,-0.0258406,0.0423,0.,0.0644581,0.0360202,-0.
 2734929,0.,0.,0.,-0.0470961,0.,0.,0.,-0.6734992,0.3166955,0.,0.,0.,0.1
 72191,0.,0.,0.,0.1959859\Polar=18.2347986,0.,53.093537,0.,0.,52.295479
 6\Quadrupole=-3.9418559,0.7920571,3.1497988,0.,0.,0.\PG=C02V [C2(N1H1)
 ,SGV(C4H4)]\NImag=0\\0.10726629,0.,0.79509130,0.,0.12791853,0.68957629
 ,-0.06086873,0.,0.,0.11511086,0.,-0.12563220,-0.07121835,0.,0.63134500
 ,0.,-0.08816702,-0.36591840,0.,-0.11271088,0.80434956,0.01168578,0.,0.
 ,-0.05883398,0.,0.,0.11511086,0.,-0.03471223,-0.07502704,0.,-0.2866420
 1,0.01661665,0.,0.63134500,0.,-0.01576676,0.00038997,0.,-0.01661665,-0
 .11060763,0.,0.11271088,0.80434956,0.01546251,0.,0.,0.01168578,0.,0.,-
 0.06086873,0.,0.,0.10726629,0.,-0.09056818,0.01485973,0.,-0.03471223,0
 .01576676,0.,-0.12563220,0.08816702,0.,0.79509130,0.,-0.01485973,-0.01
 258183,0.,0.07502704,0.00038997,0.,0.07121835,-0.36591840,0.,-0.127918
 53,0.68957629,-0.01931956,0.,0.,0.00019569,0.,0.,0.00432802,0.,0.,0.00
 191303,0.,0.,0.01811893,0.,-0.30580865,-0.10872985,0.,0.00052344,0.001
 07132,0.,0.00076728,-0.00065681,0.,-0.00081379,0.00466628,0.,0.3249988
 5,0.,-0.11837815,-0.11294891,0.,-0.02383259,0.00321025,0.,-0.00140410,
 -0.00583401,0.,0.00258778,-0.00453710,0.,0.11799639,0.10467320,-0.0016
 3275,0.,0.,-0.02567960,0.,0.,-0.00102768,0.,0.,0.00332438,0.,0.,-0.003
 09640,0.,0.,0.02182968,0.,0.01078632,-0.00912436,0.,-0.16430287,0.1431
 5265,0.,-0.00618071,0.02446595,0.,-0.00646040,-0.00108870,0.,-0.000008
 07,0.00083918,0.,0.16472583,0.,0.02013578,-0.01073059,0.,0.14094432,-0
 .24930744,0.,-0.00365690,0.00678667,0.,-0.00199755,-0.00015481,0.,-0.0
 0048764,0.00040685,0.,-0.15489427,0.25781006,0.00332438,0.,0.,-0.00102
 768,0.,0.,-0.02567960,0.,0.,-0.00163275,0.,0.,0.00148818,0.,0.,-0.0022
 8420,0.,0.,0.02182968,0.,-0.00646040,0.00108870,0.,-0.00618071,-0.0244
 6595,0.,-0.16430287,-0.14315265,0.,0.01078632,0.00912436,0.,0.00010343
 ,-0.00154223,0.,0.00091724,0.00070970,0.,0.16472583,0.,0.00199755,-0.0
 0015481,0.,0.00365690,0.00678667,0.,-0.14094432,-0.24930744,0.,-0.0201
 3578,-0.01073059,0.,-0.00000338,0.00050016,0.,-0.00070970,-0.00000243,
 0.,0.15489427,0.25781006,0.00191303,0.,0.,0.00432802,0.,0.,0.00019569,
 0.,0.,-0.01931956,0.,0.,0.00246947,0.,0.,0.00148818,0.,0.,-0.00309640,
 0.,0.,0.01811893,0.,-0.00081379,-0.00466628,0.,0.00076728,0.00065681,0
 .,0.00052344,-0.00107132,0.,-0.30580865,0.10872985,0.,-0.00060144,0.00
 080717,0.,0.00010343,0.00000338,0.,-0.00000807,0.00048764,0.,0.3249988
 5,0.,-0.00258778,-0.00453710,0.,0.00140410,-0.00583401,0.,0.02383259,0
 .00321025,0.,0.11837815,-0.11294891,0.,-0.00080717,0.00093245,0.,0.001
 54223,0.00050016,0.,-0.00083918,0.00040685,0.,-0.11799639,0.10467320,-
 0.05025989,0.,0.,0.01325551,0.,0.,0.01325551,0.,0.,-0.05025988,0.,0.,-
 0.00440754,0.,0.,0.00450872,0.,0.,0.00450872,0.,0.,-0.00440754,0.,0.,0
 .07384880,0.,-0.25397728,0.09887478,0.,-0.00855488,0.04376666,0.,-0.00
 855489,-0.04376666,0.,-0.25397728,-0.09887478,0.,-0.01929819,0.0238050
 7,0.,-0.00050631,-0.00201903,0.,-0.00050631,0.00201903,0.,-0.01929819,
 -0.02380507,0.,0.63867599,0.,0.09623430,-0.17420542,0.,-0.00031265,-0.
 08340421,0.,0.00031265,-0.08340421,0.,-0.09623430,-0.17420542,0.,-0.01
 310890,0.01301283,0.,-0.00381030,-0.00509093,0.,0.00381030,-0.00509093
 ,0.,0.01310890,0.01301283,0.,0.,0.96706184,-0.00757106,0.,0.,0.0018341
 2,0.,0.,0.00183412,0.,0.,-0.00757106,0.,0.,-0.00168981,0.,0.,0.0025696
 8,0.,0.,0.00256968,0.,0.,-0.00168981,0.,0.,-0.00004242,0.,0.,0.0097565
 6,0.,0.01209511,0.02602416,0.,-0.00661080,0.00431301,0.,-0.00661080,-0
 .00431301,0.,0.01209511,-0.02602416,0.,0.00013714,-0.00087853,0.,0.000
 92555,0.00126220,0.,0.00092555,-0.00126220,0.,0.00013714,0.00087853,0.
 ,-0.07400265,0.,0.,0.06090866,0.,-0.00652671,-0.00888921,0.,0.00365876
 ,0.00033523,0.,-0.00365876,0.00033523,0.,0.00652671,-0.00888921,0.,0.0
 0005975,0.00058428,0.,-0.00037267,-0.00021754,0.,0.00037267,-0.0002175
 4,0.,-0.00005975,0.00058428,0.,0.,-0.46768637,0.,0.,0.48406086\\0.,-0.
 00008224,0.00013695,0.,0.00007625,-0.00002170,0.,-0.00007625,-0.000021
 70,0.,0.00008224,0.00013695,0.,0.00000907,-0.00002762,0.,-0.00005287,-
 0.00004384,0.,0.00005287,-0.00004384,0.,-0.00000907,-0.00002762,0.,0.,
 -0.00008488,0.,0.,-0.00000270\\\@


 WE DON'T KNOW ONE MILLIONTH OF ONE PERCENT ABOUT
 ANYTHING.
                                     T. A. EDISON.
 Job cpu time:       0 days  0 hours  1 minutes 34.3 seconds.
 Elapsed time:       0 days  0 hours  0 minutes  6.5 seconds.
 File lengths (MBytes):  RWF=     12 Int=      0 D2E=      0 Chk=      8 Scr=      1
 Normal termination of Gaussian 16 at Sat Aug 10 16:33:51 2019.
