 Entering Gaussian System, Link 0=/software/sse/easybuild/prefix/software/Gaussian/16.B.01-avx2-nsc1-bdist/g16/g16.orig
 Input=freq-lm.wrap
 Output=freq-lm.log
 Initial command:
 /software/sse/easybuild/prefix/software/Gaussian/16.B.01-avx2-nsc1-bdist/g16/l1.exe "/scratch/local/Gau-434735.inp" -scrdir="/scratch/local/"
 Default is to use a total of  16 processors:
                               16 via shared-memory
                                1 via Linda
 Entering Link 1 = /software/sse/easybuild/prefix/software/Gaussian/16.B.01-avx2-nsc1-bdist/g16/l1.exe PID=    434740.
  
 Copyright (c) 1988-2017, Gaussian, Inc.  All Rights Reserved.
  
 This is part of the Gaussian(R) 16 program.  It is based on
 the Gaussian(R) 09 system (copyright 2009, Gaussian, Inc.),
 the Gaussian(R) 03 system (copyright 2003, Gaussian, Inc.),
 the Gaussian(R) 98 system (copyright 1998, Gaussian, Inc.),
 the Gaussian(R) 94 system (copyright 1995, Gaussian, Inc.),
 the Gaussian 92(TM) system (copyright 1992, Gaussian, Inc.),
 the Gaussian 90(TM) system (copyright 1990, Gaussian, Inc.),
 the Gaussian 88(TM) system (copyright 1988, Gaussian, Inc.),
 the Gaussian 86(TM) system (copyright 1986, Carnegie Mellon
 University), and the Gaussian 82(TM) system (copyright 1983,
 Carnegie Mellon University). Gaussian is a federally registered
 trademark of Gaussian, Inc.
  
 This software contains proprietary and confidential information,
 including trade secrets, belonging to Gaussian, Inc.
  
 This software is provided under written license and may be
 used, copied, transmitted, or stored only in accord with that
 written license.
  
 The following legend is applicable only to US Government
 contracts under FAR:
  
                    RESTRICTED RIGHTS LEGEND
  
 Use, reproduction and disclosure by the US Government is
 subject to restrictions as set forth in subparagraphs (a)
 and (c) of the Commercial Computer Software - Restricted
 Rights clause in FAR 52.227-19.
  
 Gaussian, Inc.
 340 Quinnipiac St., Bldg. 40, Wallingford CT 06492
  
  
 ---------------------------------------------------------------
 Warning -- This program may not be used in any manner that
 competes with the business of Gaussian, Inc. or will provide
 assistance to any competitor of Gaussian, Inc.  The licensee
 of this program is prohibited from giving any competitor of
 Gaussian, Inc. access to this program.  By using this program,
 the user acknowledges that Gaussian, Inc. is engaged in the
 business of creating and licensing software in the field of
 computational chemistry and represents and warrants to the
 licensee that it is not a competitor of Gaussian, Inc. and that
 it will not use this program in any manner prohibited above.
 ---------------------------------------------------------------
  

 Cite this work as:
 Gaussian 16, Revision B.01,
 M. J. Frisch, G. W. Trucks, H. B. Schlegel, G. E. Scuseria, 
 M. A. Robb, J. R. Cheeseman, G. Scalmani, V. Barone, 
 G. A. Petersson, H. Nakatsuji, X. Li, M. Caricato, A. V. Marenich, 
 J. Bloino, B. G. Janesko, R. Gomperts, B. Mennucci, H. P. Hratchian, 
 J. V. Ortiz, A. F. Izmaylov, J. L. Sonnenberg, D. Williams-Young, 
 F. Ding, F. Lipparini, F. Egidi, J. Goings, B. Peng, A. Petrone, 
 T. Henderson, D. Ranasinghe, V. G. Zakrzewski, J. Gao, N. Rega, 
 G. Zheng, W. Liang, M. Hada, M. Ehara, K. Toyota, R. Fukuda, 
 J. Hasegawa, M. Ishida, T. Nakajima, Y. Honda, O. Kitao, H. Nakai, 
 T. Vreven, K. Throssell, J. A. Montgomery, Jr., J. E. Peralta, 
 F. Ogliaro, M. J. Bearpark, J. J. Heyd, E. N. Brothers, K. N. Kudin, 
 V. N. Staroverov, T. A. Keith, R. Kobayashi, J. Normand, 
 K. Raghavachari, A. P. Rendell, J. C. Burant, S. S. Iyengar, 
 J. Tomasi, M. Cossi, J. M. Millam, M. Klene, C. Adamo, R. Cammi, 
 J. W. Ochterski, R. L. Martin, K. Morokuma, O. Farkas, 
 J. B. Foresman, and D. J. Fox, Gaussian, Inc., Wallingford CT, 2016.
 
 ******************************************
 Gaussian 16:  ES64L-G16RevB.01 20-Dec-2017
                10-Aug-2019 
 ******************************************
 %chk=freq.chk
 ----------------------------------------------------------------------
 # freq(intmodes) iop(1/33=3) b3lyp/6-31g(d,p) geom=connectivity iop(7/
 75=-1)
 ----------------------------------------------------------------------
 1/10=4,18=20,30=1,33=3,38=1,57=2/1,3;
 2/9=110,12=2,17=6,18=5,40=1/2;
 3/5=1,6=6,7=101,11=2,25=1,30=1,71=2,74=-5,140=1/1,2,3;
 4//1;
 5/5=2,38=5,98=1/2;
 8/6=4,10=90,11=11/1;
 11/6=1,8=1,9=11,15=111,16=1/1,2,10;
 10/6=1/2;
 6/7=2,8=2,9=2,10=2,28=1/1;
 7/8=21,10=1,25=1,75=-1/1,2,3,16;
 1/10=4,18=20,30=1,33=3/3;
 99//99;
 ONIOM results not found on unit 2.
 ----
 name
 ----
 TstMul:  ICh=     0
 TstMul:  Mul=     1
 TstMul:  ICh=     0
 TstMul:  Mul=     1
 Symbolic Z-matrix:
 Charge =  0 Multiplicity = 1
 C                     0.       -1.1279    0. 
 C                    -1.12789  -0.36824   0. 
 C                    -0.61769   0.96078   0. 
 O                     1.09375  -0.34513   0. 
 H                     0.18111  -2.19285   0. 
 H                    -2.15579  -0.6947    0. 
 H                    -1.1637    1.89538   0. 
 N                     0.69455   0.99506   0. 
 
 RdStrC is calling ZToCFu for IStruc=1 NZ=     8.
                                ZToCFu                                
 ---------------------------------------------------------------------
 Center     Atomic      Atomic             Coordinates (Angstroms)
 Number     Number       Type             X           Y           Z
 ---------------------------------------------------------------------
      1          6           0        0.000000   -1.127900    0.000000
      2          6           0       -1.127888   -0.368242    0.000000
      3          6           0       -0.617691    0.960778    0.000000
      4          8           0        1.093748   -0.345133    0.000000
      5          1           0        0.181111   -2.192854    0.000000
      6          1           0       -2.155786   -0.694697    0.000000
      7          1           0       -1.163704    1.895379    0.000000
      8          7           0        0.694554    0.995060    0.000000
 ---------------------------------------------------------------------
 Connectivity in DoCon:
 I=     1 IAn=  6 IBond, RBType=     2  2.00     4  1.00     5  1.00
 I=     2 IAn=  6 IBond, RBType=     1  2.00     3  1.50     6  1.00
 I=     3 IAn=  6 IBond, RBType=     2  1.50     7  1.00     8  2.00
 I=     4 IAn=  8 IBond, RBType=     1  1.00     8  1.00
 I=     5 IAn=  1 IBond, RBType=     1  1.00
 I=     6 IAn=  1 IBond, RBType=     2  1.00
 I=     7 IAn=  1 IBond, RBType=     3  1.00
 I=     8 IAn=  7 IBond, RBType=     3  2.00     4  1.00
 After GenITR:
 ITRead=  0  0  0  0  0  0  0  0
 MicOpt= -1 -1 -1 -1 -1 -1 -1 -1
 List IsCon N=      8 M=      2:
 I=      1 Vals=      2      2 |      4      1 |      5      1 |
 I=      2 Vals=      1      2 |      3      1 |      6      1 |
 I=      3 Vals=      2      1 |      7      1 |      8      2 |
 I=      4 Vals=      1      1 |      8      1 |
 I=      5 Vals=      1      1 |
 I=      6 Vals=      2      1 |
 I=      7 Vals=      3      1 |
 I=      8 Vals=      3      2 |      4      1 |
 Coordinate R1 contains atom 1 which is already in QM block.
 Coordinate R1 contains atom 2 which is already in QM block.
 Coordinate R2 contains atom 1 which is already in QM block.
 Coordinate R2 contains atom 4 which is already in QM block.
 Coordinate R3 contains atom 1 which is already in QM block.
 Coordinate R3 contains atom 5 which is already in QM block.
 Coordinate R4 contains atom 2 which is already in QM block.
 Coordinate R4 contains atom 3 which is already in QM block.
 Coordinate R5 contains atom 2 which is already in QM block.
 Coordinate R5 contains atom 6 which is already in QM block.
 Coordinate R6 contains atom 3 which is already in QM block.
 Coordinate R6 contains atom 7 which is already in QM block.
 Coordinate R7 contains atom 3 which is already in QM block.
 Coordinate R7 contains atom 8 which is already in QM block.
 Coordinate R8 contains atom 4 which is already in QM block.
 Coordinate R8 contains atom 8 which is already in QM block.
 Coordinate A1 contains atom 2 which is already in QM block.
 Coordinate A1 contains atom 1 which is already in QM block.
 Coordinate A1 contains atom 1 which is already in QM block.
 Coordinate A2 contains atom 2 which is already in QM block.
 Coordinate A2 contains atom 1 which is already in QM block.
 Coordinate A2 contains atom 1 which is already in QM block.
 Coordinate A3 contains atom 4 which is already in QM block.
 Coordinate A3 contains atom 1 which is already in QM block.
 Coordinate A3 contains atom 1 which is already in QM block.
 Coordinate A4 contains atom 1 which is already in QM block.
 Coordinate A4 contains atom 2 which is already in QM block.
 Coordinate A4 contains atom 2 which is already in QM block.
 Coordinate A5 contains atom 1 which is already in QM block.
 Coordinate A5 contains atom 2 which is already in QM block.
 Coordinate A5 contains atom 2 which is already in QM block.
 Coordinate A6 contains atom 3 which is already in QM block.
 Coordinate A6 contains atom 2 which is already in QM block.
 Coordinate A6 contains atom 2 which is already in QM block.
 Coordinate A7 contains atom 2 which is already in QM block.
 Coordinate A7 contains atom 3 which is already in QM block.
 Coordinate A7 contains atom 3 which is already in QM block.
 Coordinate A8 contains atom 2 which is already in QM block.
 Coordinate A8 contains atom 3 which is already in QM block.
 Coordinate A8 contains atom 3 which is already in QM block.
 Coordinate A9 contains atom 7 which is already in QM block.
 Coordinate A9 contains atom 3 which is already in QM block.
 Coordinate A9 contains atom 3 which is already in QM block.
 Coordinate A10 contains atom 1 which is already in QM block.
 Coordinate A10 contains atom 4 which is already in QM block.
 Coordinate A10 contains atom 4 which is already in QM block.
 Coordinate A11 contains atom 3 which is already in QM block.
 Coordinate A11 contains atom 8 which is already in QM block.
 Coordinate A11 contains atom 8 which is already in QM block.
 Coordinate D1 contains atom 4 which is already in QM block.
 Coordinate D1 contains atom 1 which is already in QM block.
 Coordinate D1 contains atom 2 which is already in QM block.
 Coordinate D1 contains atom 3 which is already in QM block.
 Coordinate D2 contains atom 4 which is already in QM block.
 Coordinate D2 contains atom 1 which is already in QM block.
 Coordinate D2 contains atom 2 which is already in QM block.
 Coordinate D2 contains atom 6 which is already in QM block.
 Coordinate D3 contains atom 5 which is already in QM block.
 Coordinate D3 contains atom 1 which is already in QM block.
 Coordinate D3 contains atom 2 which is already in QM block.
 Coordinate D3 contains atom 3 which is already in QM block.
 Coordinate D4 contains atom 5 which is already in QM block.
 Coordinate D4 contains atom 1 which is already in QM block.
 Coordinate D4 contains atom 2 which is already in QM block.
 Coordinate D4 contains atom 6 which is already in QM block.
 Coordinate D5 contains atom 2 which is already in QM block.
 Coordinate D5 contains atom 1 which is already in QM block.
 Coordinate D5 contains atom 4 which is already in QM block.
 Coordinate D5 contains atom 8 which is already in QM block.
 Coordinate D6 contains atom 5 which is already in QM block.
 Coordinate D6 contains atom 1 which is already in QM block.
 Coordinate D6 contains atom 4 which is already in QM block.
 Coordinate D6 contains atom 8 which is already in QM block.
 Coordinate D7 contains atom 1 which is already in QM block.
 Coordinate D7 contains atom 2 which is already in QM block.
 Coordinate D7 contains atom 3 which is already in QM block.
 Coordinate D7 contains atom 7 which is already in QM block.
 Coordinate D8 contains atom 1 which is already in QM block.
 Coordinate D8 contains atom 2 which is already in QM block.
 Coordinate D8 contains atom 3 which is already in QM block.
 Coordinate D8 contains atom 8 which is already in QM block.
 Coordinate D9 contains atom 6 which is already in QM block.
 Coordinate D9 contains atom 2 which is already in QM block.
 Coordinate D9 contains atom 3 which is already in QM block.
 Coordinate D9 contains atom 7 which is already in QM block.
 Coordinate D10 contains atom 6 which is already in QM block.
 Coordinate D10 contains atom 2 which is already in QM block.
 Coordinate D10 contains atom 3 which is already in QM block.
 Coordinate D10 contains atom 8 which is already in QM block.
 Coordinate D11 contains atom 2 which is already in QM block.
 Coordinate D11 contains atom 3 which is already in QM block.
 Coordinate D11 contains atom 8 which is already in QM block.
 Coordinate D11 contains atom 4 which is already in QM block.
 Coordinate D12 contains atom 7 which is already in QM block.
 Coordinate D12 contains atom 3 which is already in QM block.
 Coordinate D12 contains atom 8 which is already in QM block.
 Coordinate D12 contains atom 4 which is already in QM block.
 Coordinate D13 contains atom 1 which is already in QM block.
 Coordinate D13 contains atom 4 which is already in QM block.
 Coordinate D13 contains atom 8 which is already in QM block.
 Coordinate D13 contains atom 3 which is already in QM block.
 Saved connectivity
 I=     1 IAn=  6 IBond, RBType=     2  2.00     4  1.00     5  1.00
 I=     2 IAn=  6 IBond, RBType=     1  2.00     3  1.50     6  1.00
 I=     3 IAn=  6 IBond, RBType=     2  1.50     7  1.00     8  2.00
 I=     4 IAn=  8 IBond, RBType=     1  1.00     8  1.00
 I=     5 IAn=  1 IBond, RBType=     1  1.00
 I=     6 IAn=  1 IBond, RBType=     2  1.00
 I=     7 IAn=  1 IBond, RBType=     3  1.00
 I=     8 IAn=  7 IBond, RBType=     3  2.00     4  1.00
 ITRead=  0  0  0  0  0  0  0  0
 MicOpt= -1 -1 -1 -1 -1 -1 -1 -1
 NAtoms=      8 NQM=        8 NQMF=       0 NMMI=      0 NMMIF=      0
                NMic=       0 NMicF=      0.
 No MM parameters found.
 Leave Link  101 at Sat Aug 10 16:33:46 2019, MaxMem=  4294967296 cpu:               6.2 elap:               0.4

 GradGradGradGradGradGradGradGradGradGradGradGradGradGradGradGradGradGrad
 Berny optimization.
 GetPCM: File not found, return IValue=0.
 Optmz: redundant internal coordinate code flag= 1
 Initialization pass.
                           ----------------------------
                           !    Initial Parameters    !
                           ! (Angstroms and Degrees)  !
 --------------------------                            --------------------------
 ! Name  Definition              Value          Derivative Info.                !
 --------------------------------------------------------------------------------
 ! R1    R(1,2)                  1.3599         calculate D2E/DX2 analytically  !
 ! R2    R(1,4)                  1.345          calculate D2E/DX2 analytically  !
 ! R3    R(1,5)                  1.0802         calculate D2E/DX2 analytically  !
 ! R4    R(2,3)                  1.4236         calculate D2E/DX2 analytically  !
 ! R5    R(2,6)                  1.0785         calculate D2E/DX2 analytically  !
 ! R6    R(3,7)                  1.0824         calculate D2E/DX2 analytically  !
 ! R7    R(3,8)                  1.3127         calculate D2E/DX2 analytically  !
 ! R8    R(4,8)                  1.3984         calculate D2E/DX2 analytically  !
 ! A1    A(2,1,4)              110.4485         calculate D2E/DX2 analytically  !
 ! A2    A(2,1,5)              133.6128         calculate D2E/DX2 analytically  !
 ! A3    A(4,1,5)              115.9387         calculate D2E/DX2 analytically  !
 ! A4    A(1,2,3)              102.9599         calculate D2E/DX2 analytically  !
 ! A5    A(1,2,6)              128.4193         calculate D2E/DX2 analytically  !
 ! A6    A(3,2,6)              128.6209         calculate D2E/DX2 analytically  !
 ! A7    A(2,3,7)              128.7044         calculate D2E/DX2 analytically  !
 ! A8    A(2,3,8)              112.4978         calculate D2E/DX2 analytically  !
 ! A9    A(7,3,8)              118.7979         calculate D2E/DX2 analytically  !
 ! A10   A(1,4,8)              109.0035         calculate D2E/DX2 analytically  !
 ! A11   A(3,8,4)              105.0904         calculate D2E/DX2 analytically  !
 ! D1    D(4,1,2,3)              0.0            calculate D2E/DX2 analytically  !
 ! D2    D(4,1,2,6)            180.0            calculate D2E/DX2 analytically  !
 ! D3    D(5,1,2,3)            180.0            calculate D2E/DX2 analytically  !
 ! D4    D(5,1,2,6)              0.0            calculate D2E/DX2 analytically  !
 ! D5    D(2,1,4,8)              0.0            calculate D2E/DX2 analytically  !
 ! D6    D(5,1,4,8)            180.0            calculate D2E/DX2 analytically  !
 ! D7    D(1,2,3,7)            180.0            calculate D2E/DX2 analytically  !
 ! D8    D(1,2,3,8)              0.0            calculate D2E/DX2 analytically  !
 ! D9    D(6,2,3,7)              0.0            calculate D2E/DX2 analytically  !
 ! D10   D(6,2,3,8)            180.0            calculate D2E/DX2 analytically  !
 ! D11   D(2,3,8,4)              0.0            calculate D2E/DX2 analytically  !
 ! D12   D(7,3,8,4)            180.0            calculate D2E/DX2 analytically  !
 ! D13   D(1,4,8,3)              0.0            calculate D2E/DX2 analytically  !
 --------------------------------------------------------------------------------
 Maximum allowed force set to 1.00D+20.
 Trust Radius=3.00D-01 FncErr=1.00D-07 GrdErr=1.00D-07 EigMax=2.50D+02 EigMin=1.00D-04
 Number of steps in this run=      2 maximum allowed number of steps=      2.
 GradGradGradGradGradGradGradGradGradGradGradGradGradGradGradGradGradGrad

 Leave Link  103 at Sat Aug 10 16:33:47 2019, MaxMem=  4294967296 cpu:               1.1 elap:               0.1
                          Input orientation:                          
 ---------------------------------------------------------------------
 Center     Atomic      Atomic             Coordinates (Angstroms)
 Number     Number       Type             X           Y           Z
 ---------------------------------------------------------------------
      1          6           0        0.000000   -1.127900    0.000000
      2          6           0       -1.127888   -0.368242    0.000000
      3          6           0       -0.617691    0.960778    0.000000
      4          8           0        1.093748   -0.345133    0.000000
      5          1           0        0.181111   -2.192854    0.000000
      6          1           0       -2.155786   -0.694697    0.000000
      7          1           0       -1.163704    1.895379    0.000000
      8          7           0        0.694554    0.995060    0.000000
 ---------------------------------------------------------------------
                    Distance matrix (angstroms):
                    1          2          3          4          5
     1  C    0.000000
     2  C    1.359857   0.000000
     3  C    2.178100   1.423585   0.000000
     4  O    1.344994   2.221756   2.152772   0.000000
     5  H    1.080245   2.245593   3.253226   2.060820   0.000000
     6  H    2.198881   1.078493   2.259720   3.268282   2.775889
     7  H    3.239510   2.263904   1.082409   3.180563   4.303740
     8  N    2.233689   2.275937   1.312693   1.398382   3.228997
                    6          7          8
     6  H    0.000000
     7  H    2.773575   0.000000
     8  N    3.313566   2.064872   0.000000
 Stoichiometry    C3H3NO
 Framework group  CS[SG(C3H3NO)]
 Deg. of freedom    13
 Full point group                 CS      NOp   2
 Largest Abelian subgroup         CS      NOp   2
 Largest concise Abelian subgroup C1      NOp   1
                         Standard orientation:                         
 ---------------------------------------------------------------------
 Center     Atomic      Atomic             Coordinates (Angstroms)
 Number     Number       Type             X           Y           Z
 ---------------------------------------------------------------------
      1          6           0       -0.000000    1.127900    0.000000
      2          6           0        1.127888    0.368242    0.000000
      3          6           0        0.617691   -0.960778    0.000000
      4          8           0       -1.093748    0.345133    0.000000
      5          1           0       -0.181111    2.192854    0.000000
      6          1           0        2.155786    0.694697    0.000000
      7          1           0        1.163705   -1.895379    0.000000
      8          7           0       -0.694554   -0.995060    0.000000
 ---------------------------------------------------------------------
 Rotational constants (GHZ):           9.8001175           9.5740902           4.8428927
 Standard basis: 6-31G(d,p) (6D, 7F)
 There are    67 symmetry adapted cartesian basis functions of A'  symmetry.
 There are    23 symmetry adapted cartesian basis functions of A"  symmetry.
 There are    67 symmetry adapted basis functions of A'  symmetry.
 There are    23 symmetry adapted basis functions of A"  symmetry.
    90 basis functions,   161 primitive gaussians,    90 cartesian basis functions
    18 alpha electrons       18 beta electrons
       nuclear repulsion energy       161.7744634397 Hartrees.
 NAtoms=    8 NActive=    8 NUniq=    8 SFac= 1.00D+00 NAtFMM=   60 NAOKFM=F Big=F
 Integral buffers will be    131072 words long.
 Raffenetti 2 integral format.
 Two-electron integral symmetry is turned on.
 One-electron integrals computed using PRISM.
 NBasis=    90 RedAO= T EigKep=  1.61D-03  NBF=    67    23
 NBsUse=    90 1.00D-06 EigRej= -1.00D+00 NBFU=    67    23
 ExpMin= 1.61D-01 ExpMax= 5.48D+03 ExpMxC= 8.25D+02 IAcc=3 IRadAn=         5 AccDes= 0.00D+00
 Harris functional with IExCor=  402 and IRadAn=       5 diagonalized for initial guess.
 HarFok:  IExCor=  402 AccDes= 0.00D+00 IRadAn=         5 IDoV= 1 UseB2=F ITyADJ=14
 ICtDFT=  3500011 ScaDFX=  1.000000  1.000000  1.000000  1.000000
 FoFCou: FMM=F IPFlag=           0 FMFlag=      100000 FMFlg1=           0
         NFxFlg=           0 DoJE=T BraDBF=F KetDBF=T FulRan=T
         wScrn=  0.000000 ICntrl=       500 IOpCl=  0 I1Cent=   200000004 NGrid=           0
         NMat0=    1 NMatS0=      1 NMatT0=    0 NMatD0=    1 NMtDS0=    0 NMtDT0=    0
 Petite list used in FoFCou.
 Initial guess orbital symmetries:
       Occupied  (A') (A') (A') (A') (A') (A') (A') (A') (A') (A')
                 (A') (A') (A') (A") (A') (A') (A") (A")
       Virtual   (A") (A") (A') (A') (A') (A') (A') (A') (A') (A')
                 (A') (A") (A') (A') (A") (A') (A") (A') (A') (A')
                 (A") (A') (A') (A') (A') (A") (A') (A') (A') (A')
                 (A") (A") (A') (A") (A') (A") (A") (A') (A') (A')
                 (A') (A') (A') (A') (A") (A") (A') (A') (A") (A")
                 (A") (A') (A') (A') (A') (A") (A") (A') (A") (A')
                 (A') (A') (A') (A') (A') (A') (A') (A') (A') (A')
                 (A') (A')
 The electronic state of the initial guess is 1-A'.
 Keep R1 ints in memory in symmetry-blocked form, NReq=23023330.
 Requested convergence on RMS density matrix=1.00D-08 within 128 cycles.
 Requested convergence on MAX density matrix=1.00D-06.
 Requested convergence on             energy=1.00D-06.
 No special actions if energy rises.
 Integral accuracy reduced to 1.0D-05 until final iterations.
 Initial convergence to 1.0D-05 achieved.  Increase integral accuracy.
 SCF Done:  E(RB3LYP) =  -246.039636779     A.U. after   14 cycles
            NFock= 14  Conv=0.50D-08     -V/T= 2.0091
 DoSCS=F DFT=T ScalE2(SS,OS)=  1.000000  1.000000
 Range of M.O.s used for correlation:     1    90
 NBasis=    90 NAE=    18 NBE=    18 NFC=     0 NFV=     0
 NROrb=     90 NOA=    18 NOB=    18 NVA=    72 NVB=    72
 Symmetrizing basis deriv contribution to polar:
 IMax=3 JMax=2 DiffMx= 0.00D+00
 G2DrvN: will do     9 centers at a time, making    1 passes.
 Calling FoFCou, ICntrl=  3107 FMM=F I1Cent=   0 AccDes= 0.00D+00.
 End of G2Drv F.D. properties file   721 does not exist.
 End of G2Drv F.D. properties file   722 does not exist.
 End of G2Drv F.D. properties file   788 does not exist.
          IDoAtm=11111111
          Differentiating once with respect to electric field.
                with respect to dipole field.
          Differentiating once with respect to nuclear coordinates.
 Keep R1 ints in memory in symmetry-blocked form, NReq=22974793.
          There are    27 degrees of freedom in the 1st order CPHF.  IDoFFX=6 NUNeed=     3.
     24 vectors produced by pass  0 Test12= 4.80D-15 3.70D-09 XBig12= 4.58D+01 4.80D+00.
 AX will form    24 AO Fock derivatives at one time.
     24 vectors produced by pass  1 Test12= 4.80D-15 3.70D-09 XBig12= 1.44D+01 1.13D+00.
     24 vectors produced by pass  2 Test12= 4.80D-15 3.70D-09 XBig12= 1.25D-01 8.62D-02.
     24 vectors produced by pass  3 Test12= 4.80D-15 3.70D-09 XBig12= 3.88D-04 5.49D-03.
     24 vectors produced by pass  4 Test12= 4.80D-15 3.70D-09 XBig12= 7.67D-07 1.62D-04.
     18 vectors produced by pass  5 Test12= 4.80D-15 3.70D-09 XBig12= 8.30D-10 4.48D-06.
      3 vectors produced by pass  6 Test12= 4.80D-15 3.70D-09 XBig12= 7.74D-13 1.29D-07.
      1 vectors produced by pass  7 Test12= 4.80D-15 3.70D-09 XBig12= 4.94D-16 4.66D-09.
 InvSVY:  IOpt=1 It=  1 EMax= 5.33D-15
 Solved reduced A of dimension   142 with    27 vectors.
 Isotropic polarizability for W=    0.000000       34.04 Bohr**3.
 End of Minotr F.D. properties file   721 does not exist.
 End of Minotr F.D. properties file   722 does not exist.
 End of Minotr F.D. properties file   788 does not exist.

 **********************************************************************

            Population analysis using the SCF Density.

 **********************************************************************

 Orbital symmetries:
       Occupied  (A') (A') (A') (A') (A') (A') (A') (A') (A') (A')
                 (A') (A") (A') (A') (A') (A') (A") (A")
       Virtual   (A") (A") (A') (A') (A') (A') (A') (A') (A') (A')
                 (A') (A") (A') (A') (A") (A') (A") (A') (A') (A')
                 (A") (A') (A') (A') (A') (A") (A') (A') (A') (A')
                 (A") (A') (A") (A") (A') (A") (A") (A') (A') (A')
                 (A') (A') (A') (A") (A') (A") (A') (A') (A") (A")
                 (A") (A') (A') (A') (A') (A") (A") (A') (A") (A')
                 (A') (A') (A') (A') (A') (A') (A') (A') (A') (A')
                 (A') (A')
 The electronic state is 1-A'.
 Alpha  occ. eigenvalues --  -19.24030 -14.38390 -10.26120 -10.22989 -10.20497
 Alpha  occ. eigenvalues --   -1.14392  -0.86970  -0.79636  -0.62638  -0.59775
 Alpha  occ. eigenvalues --   -0.54494  -0.46800  -0.45786  -0.42181  -0.39106
 Alpha  occ. eigenvalues --   -0.30927  -0.30366  -0.26877
 Alpha virt. eigenvalues --   -0.01582   0.05573   0.09906   0.11074   0.14741
 Alpha virt. eigenvalues --    0.16369   0.19046   0.26407   0.38066   0.38565
 Alpha virt. eigenvalues --    0.51916   0.52245   0.54176   0.56754   0.57424
 Alpha virt. eigenvalues --    0.62611   0.63049   0.68724   0.71199   0.76623
 Alpha virt. eigenvalues --    0.77825   0.80916   0.81170   0.85626   0.90847
 Alpha virt. eigenvalues --    0.96597   1.00067   1.03806   1.07120   1.11306
 Alpha virt. eigenvalues --    1.26378   1.34359   1.34940   1.35649   1.45304
 Alpha virt. eigenvalues --    1.48058   1.52854   1.53872   1.64400   1.78786
 Alpha virt. eigenvalues --    1.84172   1.87113   1.98405   1.99653   2.01148
 Alpha virt. eigenvalues --    2.11192   2.15013   2.15693   2.27483   2.29031
 Alpha virt. eigenvalues --    2.36685   2.38286   2.41608   2.45518   2.52821
 Alpha virt. eigenvalues --    2.56057   2.59180   2.63603   2.73036   2.75470
 Alpha virt. eigenvalues --    2.88446   2.90030   2.95631   3.18947   3.23650
 Alpha virt. eigenvalues --    3.41748   3.69854   3.78803   3.98840   4.17983
 Alpha virt. eigenvalues --    4.32240   4.66805
          Condensed to atoms (all electrons):
               1          2          3          4          5          6
     1  C    4.761632   0.578744  -0.059844   0.272036   0.377606  -0.035531
     2  C    0.578744   4.922837   0.474671  -0.047646  -0.037817   0.369635
     3  C   -0.059844   0.474671   4.759944  -0.081248   0.003454  -0.029447
     4  O    0.272036  -0.047646  -0.081248   8.034656  -0.033017   0.003687
     5  H    0.377606  -0.037817   0.003454  -0.033017   0.551222   0.000193
     6  H   -0.035531   0.369635  -0.029447   0.003687   0.000193   0.576981
     7  H    0.004756  -0.041729   0.381478   0.004949  -0.000106  -0.000694
     8  N   -0.099035  -0.027628   0.441528   0.168524   0.004221   0.004709
               7          8
     1  C    0.004756  -0.099035
     2  C   -0.041729  -0.027628
     3  C    0.381478   0.441528
     4  O    0.004949   0.168524
     5  H   -0.000106   0.004221
     6  H   -0.000694   0.004709
     7  H    0.569453  -0.043271
     8  N   -0.043271   6.716918
 Mulliken charges:
               1
     1  C    0.199636
     2  C   -0.191069
     3  C    0.109464
     4  O   -0.321941
     5  H    0.134245
     6  H    0.110467
     7  H    0.125165
     8  N   -0.165967
 Sum of Mulliken charges =   0.00000
 Mulliken charges with hydrogens summed into heavy atoms:
               1
     1  C    0.333881
     2  C   -0.080602
     3  C    0.234628
     4  O   -0.321941
     8  N   -0.165967
 APT charges:
               1
     1  C    0.226123
     2  C   -0.172087
     3  C    0.176430
     4  O   -0.356543
     5  H    0.089131
     6  H    0.087165
     7  H    0.071366
     8  N   -0.121584
 Sum of APT charges =  -0.00000
 APT charges with hydrogens summed into heavy atoms:
               1
     1  C    0.315254
     2  C   -0.084922
     3  C    0.247796
     4  O   -0.356543
     8  N   -0.121584
 Electronic spatial extent (au):  <R**2>=            274.2654
 Charge=              0.0000 electrons
 Dipole moment (field-independent basis, Debye):
    X=              2.5568    Y=              1.4994    Z=              0.0000  Tot=              2.9640
 Quadrupole moment (field-independent basis, Debye-Ang):
   XX=            -28.2030   YY=            -24.6951   ZZ=            -29.4567
   XY=             -2.4597   XZ=              0.0000   YZ=              0.0000
 Traceless Quadrupole moment (field-independent basis, Debye-Ang):
   XX=             -0.7514   YY=              2.7565   ZZ=             -2.0051
   XY=             -2.4597   XZ=              0.0000   YZ=              0.0000
 Octapole moment (field-independent basis, Debye-Ang**2):
  XXX=              3.4079  YYY=              6.6553  ZZZ=              0.0000  XYY=              2.7725
  XXY=              1.5009  XXZ=              0.0000  XZZ=             -2.8354  YZZ=              0.1150
  YYZ=              0.0000  XYZ=              0.0000
 Hexadecapole moment (field-independent basis, Debye-Ang**3):
 XXXX=           -145.9953 YYYY=           -147.1694 ZZZZ=            -27.3155 XXXY=              0.4008
 XXXZ=              0.0000 YYYX=            -12.3951 YYYZ=              0.0000 ZZZX=              0.0000
 ZZZY=              0.0000 XXYY=            -52.9671 XXZZ=            -31.9594 YYZZ=            -34.6861
 XXYZ=              0.0000 YYXZ=              0.0000 ZZXY=             -0.8535
 N-N= 1.617744634397D+02 E-N=-8.973350412713D+02  KE= 2.438263626919D+02
 Symmetry A'   KE= 2.343483446124D+02
 Symmetry A"   KE= 9.478018079443D+00
  Exact polarizability:  40.507  -1.676  45.011   0.000   0.000  16.594
 Approx polarizability:  74.407  -3.339  74.297  -0.000  -0.000  24.733
 Calling FoFJK, ICntrl=    100127 FMM=F ISym2X=1 I1Cent= 0 IOpClX= 0 NMat=1 NMatS=1 NMatT=0.
 Full mass-weighted force constant matrix:
 Low frequencies ---   -7.1982   -0.0005    0.0008    0.0012    4.5087    6.9451
 Low frequencies ---  606.5338  646.0877  785.8859
 Diagonal vibrational polarizability:
        1.7438709       0.8187810       3.2071972
 Harmonic frequencies (cm**-1), IR intensities (KM/Mole), Raman scattering
 activities (A**4/AMU), depolarization ratios for plane and unpolarized
 incident light, reduced masses (AMU), force constants (mDyne/A),
 and normal coordinates:
                      1                      2                      3
                     A"                     A"                     A"
 Frequencies --    606.5338               646.0876               785.8859
 Red. masses --      3.3114                 5.4770                 1.2206
 Frc consts  --      0.7177                 1.3470                 0.4442
 IR Inten    --     12.4425                 2.7725                45.4186
  Atom  AN      X      Y      Z        X      Y      Z        X      Y      Z
     1   6     0.00  -0.00   0.26     0.00  -0.00   0.01     0.00  -0.00  -0.11
     2   6     0.00   0.00  -0.25     0.00  -0.00   0.19     0.00  -0.00  -0.07
     3   6    -0.00   0.00   0.08    -0.00   0.00  -0.35    -0.00   0.00  -0.02
     4   8     0.00  -0.00  -0.22    -0.00  -0.00  -0.21    -0.00  -0.00   0.05
     5   1     0.00  -0.00   0.80     0.00  -0.00  -0.00     0.00   0.00   0.50
     6   1     0.00  -0.00  -0.20     0.00  -0.00   0.41     0.00  -0.00   0.84
     7   1    -0.00   0.00   0.37     0.00   0.00  -0.68     0.00   0.00   0.18
     8   7    -0.00  -0.00   0.09     0.00   0.00   0.39     0.00  -0.00   0.01
                      4                      5                      6
                     A"                     A'                     A"
 Frequencies --    869.0823               888.6630               908.2357
 Red. masses --      1.3128                 5.7731                 1.3201
 Frc consts  --      0.5842                 2.6862                 0.6416
 IR Inten    --      0.0069                25.6527                 4.2612
  Atom  AN      X      Y      Z        X      Y      Z        X      Y      Z
     1   6     0.00  -0.00  -0.13    -0.01   0.04  -0.00     0.00   0.00  -0.02
     2   6     0.00   0.00   0.09    -0.08  -0.04   0.00    -0.00   0.00   0.08
     3   6    -0.00   0.00   0.05     0.11  -0.09  -0.00    -0.00   0.00  -0.15
     4   8     0.00  -0.00  -0.00    -0.18   0.37  -0.00     0.00  -0.00   0.02
     5   1    -0.00  -0.00   0.80     0.65   0.17   0.00    -0.00   0.00   0.12
     6   1     0.00  -0.00  -0.50    -0.11   0.05  -0.00     0.00  -0.00  -0.29
     7   1    -0.00   0.00  -0.29     0.42   0.07   0.00     0.00   0.00   0.94
     8   7    -0.00   0.00   0.00     0.12  -0.36   0.00    -0.00  -0.00   0.01
                      7                      8                      9
                     A'                     A'                     A'
 Frequencies --    919.2311               932.5851              1051.8362
 Red. masses --      4.9344                 6.3430                 1.5015
 Frc consts  --      2.4566                 3.2503                 0.9788
 IR Inten    --      1.1499                10.3908                 5.2034
  Atom  AN      X      Y      Z        X      Y      Z        X      Y      Z
     1   6     0.03   0.34   0.00     0.13  -0.15   0.00     0.01  -0.02   0.00
     2   6    -0.20   0.04  -0.00     0.34   0.18  -0.00     0.03   0.11  -0.00
     3   6    -0.12  -0.05   0.00    -0.20   0.32   0.00    -0.04  -0.11  -0.00
     4   8     0.29  -0.05  -0.00    -0.05  -0.01   0.00     0.09   0.03  -0.00
     5   1    -0.35   0.29  -0.00    -0.08  -0.18  -0.00    -0.01  -0.02   0.00
     6   1    -0.01  -0.57   0.00     0.46  -0.19   0.00    -0.21   0.87   0.00
     7   1     0.33   0.22  -0.00     0.08   0.49  -0.00    -0.29  -0.26  -0.00
     8   7    -0.08  -0.22   0.00    -0.20  -0.30  -0.00    -0.06  -0.06   0.00
                     10                     11                     12
                     A'                     A'                     A'
 Frequencies --   1132.5903              1162.0454              1255.6607
 Red. masses --      2.6701                 1.5981                 1.7618
 Frc consts  --      2.0180                 1.2714                 1.6367
 IR Inten    --      7.9029                18.9513                 6.2857
  Atom  AN      X      Y      Z        X      Y      Z        X      Y      Z
     1   6     0.07   0.22  -0.00     0.12   0.06   0.00     0.07   0.06  -0.00
     2   6     0.13   0.11  -0.00    -0.07   0.02  -0.00     0.08  -0.01   0.00
     3   6    -0.01  -0.13   0.00    -0.03   0.03  -0.00     0.07  -0.14   0.00
     4   8    -0.17  -0.07  -0.00    -0.06  -0.13   0.00    -0.08  -0.01  -0.00
     5   1    -0.14   0.20   0.00     0.88   0.18  -0.00    -0.42  -0.01   0.00
     6   1     0.28  -0.30   0.00    -0.15   0.26   0.00     0.02   0.24  -0.00
     7   1    -0.62  -0.50  -0.00     0.17   0.16   0.00     0.79   0.27  -0.00
     8   7     0.07  -0.04   0.00    -0.02   0.02  -0.00    -0.12   0.05   0.00
                     13                     14                     15
                     A'                     A'                     A'
 Frequencies --   1412.4569              1476.4938              1614.8311
 Red. masses --      2.5249                 5.8099                 4.7177
 Frc consts  --      2.9679                 7.4625                 7.2483
 IR Inten    --      5.5634                31.0853                 8.6224
  Atom  AN      X      Y      Z        X      Y      Z        X      Y      Z
     1   6    -0.17  -0.08   0.00    -0.22   0.20  -0.00     0.31  -0.12   0.00
     2   6     0.04   0.22  -0.00     0.16  -0.27   0.00    -0.27   0.14  -0.00
     3   6     0.08  -0.15  -0.00     0.34   0.19  -0.00     0.31   0.07   0.00
     4   8     0.06   0.01   0.00     0.04  -0.04  -0.00    -0.04   0.01  -0.00
     5   1     0.64   0.05  -0.00     0.32   0.35   0.00    -0.39  -0.29  -0.00
     6   1     0.30  -0.56   0.00     0.01   0.28  -0.00    -0.17  -0.36   0.00
     7   1     0.22  -0.10  -0.00    -0.45  -0.28   0.00    -0.39  -0.35  -0.00
     8   7    -0.11   0.04   0.00    -0.27  -0.08   0.00    -0.18  -0.03   0.00
                     16                     17                     18
                     A'                     A'                     A'
 Frequencies --   3253.6816              3276.2827              3300.2713
 Red. masses --      1.0949                 1.0922                 1.1086
 Frc consts  --      6.8293                 6.9071                 7.1139
 IR Inten    --      1.9680                 0.0137                 0.0894
  Atom  AN      X      Y      Z        X      Y      Z        X      Y      Z
     1   6    -0.00   0.00   0.00     0.01  -0.08  -0.00     0.01  -0.05   0.00
     2   6    -0.01  -0.00  -0.00     0.04   0.02   0.00    -0.08  -0.02  -0.00
     3   6     0.05  -0.08   0.00     0.00  -0.01   0.00    -0.00   0.01   0.00
     4   8    -0.00   0.00   0.00    -0.00  -0.00  -0.00     0.00   0.00  -0.00
     5   1     0.00  -0.03  -0.00    -0.15   0.85   0.00    -0.09   0.48  -0.00
     6   1     0.17   0.05   0.00    -0.46  -0.15  -0.00     0.82   0.26   0.00
     7   1    -0.50   0.84  -0.00    -0.05   0.10  -0.00     0.06  -0.12  -0.00
     8   7    -0.00  -0.00   0.00    -0.00   0.00   0.00     0.00   0.00   0.00

 -------------------
 - Thermochemistry -
 -------------------
 Temperature   298.150 Kelvin.  Pressure   1.00000 Atm.
 Atom     1 has atomic number  6 and mass  12.00000
 Atom     2 has atomic number  6 and mass  12.00000
 Atom     3 has atomic number  6 and mass  12.00000
 Atom     4 has atomic number  8 and mass  15.99491
 Atom     5 has atomic number  1 and mass   1.00783
 Atom     6 has atomic number  1 and mass   1.00783
 Atom     7 has atomic number  1 and mass   1.00783
 Atom     8 has atomic number  7 and mass  14.00307
 Molecular mass:    69.02146 amu.
 Principal axes and moments of inertia in atomic units:
                           1         2         3
     Eigenvalues --   184.15506 188.50263 372.65769
           X            0.29579   0.95525   0.00000
           Y            0.95525  -0.29579   0.00000
           Z            0.00000  -0.00000   1.00000
 This molecule is an asymmetric top.
 Rotational symmetry number  1.
 Rotational temperatures (Kelvin)      0.47033     0.45948     0.23242
 Rotational constants (GHZ):           9.80012     9.57409     4.84289
 Zero-point vibrational energy     152478.7 (Joules/Mol)
                                   36.44329 (Kcal/Mol)
 Warning -- explicit consideration of   1 degrees of freedom as
           vibrations may cause significant error
 Vibrational temperatures:    872.67   929.58  1130.71  1250.42  1278.59
          (Kelvin)           1306.75  1322.57  1341.78  1513.36  1629.54
                             1671.92  1806.62  2032.21  2124.35  2323.38
                             4681.32  4713.84  4748.35
 
 Zero-point correction=                           0.058076 (Hartree/Particle)
 Thermal correction to Energy=                    0.061652
 Thermal correction to Enthalpy=                  0.062596
 Thermal correction to Gibbs Free Energy=         0.031873
 Sum of electronic and zero-point Energies=           -245.981561
 Sum of electronic and thermal Energies=              -245.977985
 Sum of electronic and thermal Enthalpies=            -245.977041
 Sum of electronic and thermal Free Energies=         -246.007763
 
                     E (Thermal)             CV                S
                      KCal/Mol        Cal/Mol-Kelvin    Cal/Mol-Kelvin
 Total                   38.687             12.281             64.661
 Electronic               0.000              0.000              0.000
 Translational            0.889              2.981             38.613
 Rotational               0.889              2.981             24.074
 Vibrational             36.910              6.320              1.974
 Vibration     1          0.965              1.018              0.439
                       Q            Log10(Q)             Ln(Q)
 Total Bot       0.218421D-14        -14.660707        -33.757524
 Total V=0       0.112827D+13         12.052415         27.751710
 Vib (Bot)       0.238019D-26        -26.623388        -61.302616
 Vib (Bot)    1  0.244529D+00         -0.611669         -1.408421
 Vib (V=0)       0.122951D+01          0.089733          0.206619
 Vib (V=0)    1  0.105659D+01          0.023907          0.055048
 Electronic      0.100000D+01          0.000000          0.000000
 Translational   0.225388D+08          7.352930         16.930747
 Rotational      0.407147D+05          4.609751         10.614344
                           ----------------------------
                           ! Normal Mode     1        !
 --------------------------                            --------------------------
 ! Name  Definition              Value          Relative Weight (%)             !
 --------------------------------------------------------------------------------
 ! R1    R(1,2)                  0.0                     0.0                    !
 ! R2    R(1,4)                  0.0                     0.0                    !
 ! R3    R(1,5)                  0.0                     0.0                    !
 ! R4    R(2,3)                  0.0                     0.0                    !
 ! R5    R(2,6)                  0.0                     0.0                    !
 ! R6    R(3,7)                  0.0                     0.0                    !
 ! R7    R(3,8)                  0.0                     0.0                    !
 ! R8    R(4,8)                  0.0                     0.0                    !
 ! A1    A(2,1,4)                0.0                     0.0                    !
 ! A2    A(2,1,5)                0.0                     0.0                    !
 ! A3    A(4,1,5)                0.0                     0.0                    !
 ! A4    A(1,2,3)                0.0                     0.0                    !
 ! A5    A(1,2,6)                0.0                     0.0                    !
 ! A6    A(3,2,6)                0.0                     0.0                    !
 ! A7    A(2,3,7)                0.0                     0.0                    !
 ! A8    A(2,3,8)                0.0                     0.0                    !
 ! A9    A(7,3,8)                0.0                     0.0                    !
 ! A10   A(1,4,8)                0.0                     0.0                    !
 ! A11   A(3,8,4)                0.0                     0.0                    !
 ! D1    D(4,1,2,3)             -0.4452                 16.0                    !
 ! D2    D(4,1,2,6)             -0.0871                  3.1                    !
 ! D3    D(5,1,2,3)             -0.3412                 12.2                    !
 ! D4    D(5,1,2,6)              0.017                   0.6                    !
 ! D5    D(2,1,4,8)              0.4696                 16.8                    !
 ! D6    D(5,1,4,8)              0.3858                 13.8                    !
 ! D7    D(1,2,3,7)              0.3155                 11.3                    !
 ! D8    D(1,2,3,8)              0.2768                  9.9                    !
 ! D9    D(6,2,3,7)             -0.0436                  1.6                    !
 ! D10   D(6,2,3,8)             -0.0823                  2.9                    !
 ! D11   D(2,3,8,4)             -0.008                   0.3                    !
 ! D12   D(7,3,8,4)             -0.0425                  1.5                    !
 ! D13   D(1,4,8,3)             -0.2752                  9.9                    !
 --------------------------------------------------------------------------------
                           ----------------------------
                           ! Normal Mode     2        !
 --------------------------                            --------------------------
 ! Name  Definition              Value          Relative Weight (%)             !
 --------------------------------------------------------------------------------
 ! R1    R(1,2)                  0.0                     0.0                    !
 ! R2    R(1,4)                  0.0                     0.0                    !
 ! R3    R(1,5)                  0.0                     0.0                    !
 ! R4    R(2,3)                  0.0                     0.0                    !
 ! R5    R(2,6)                  0.0                     0.0                    !
 ! R6    R(3,7)                  0.0                     0.0                    !
 ! R7    R(3,8)                  0.0                     0.0                    !
 ! R8    R(4,8)                  0.0                     0.0                    !
 ! A1    A(2,1,4)                0.0                     0.0                    !
 ! A2    A(2,1,5)                0.0                     0.0                    !
 ! A3    A(4,1,5)                0.0                     0.0                    !
 ! A4    A(1,2,3)                0.0                     0.0                    !
 ! A5    A(1,2,6)                0.0                     0.0                    !
 ! A6    A(3,2,6)                0.0                     0.0                    !
 ! A7    A(2,3,7)                0.0                     0.0                    !
 ! A8    A(2,3,8)                0.0                     0.0                    !
 ! A9    A(7,3,8)                0.0                     0.0                    !
 ! A10   A(1,4,8)                0.0                     0.0                    !
 ! A11   A(3,8,4)                0.0                     0.0                    !
 ! D1    D(4,1,2,3)              0.1612                  4.7                    !
 ! D2    D(4,1,2,6)              0.0133                  0.4                    !
 ! D3    D(5,1,2,3)              0.1643                  4.8                    !
 ! D4    D(5,1,2,6)              0.0164                  0.5                    !
 ! D5    D(2,1,4,8)              0.226                   6.6                    !
 ! D6    D(5,1,4,8)              0.2235                  6.5                    !
 ! D7    D(1,2,3,7)             -0.1648                  4.8                    !
 ! D8    D(1,2,3,8)             -0.5319                 15.4                    !
 ! D9    D(6,2,3,7)             -0.0166                  0.5                    !
 ! D10   D(6,2,3,8)             -0.3837                 11.1                    !
 ! D11   D(2,3,8,4)              0.6634                 19.3                    !
 ! D12   D(7,3,8,4)              0.3365                  9.8                    !
 ! D13   D(1,4,8,3)             -0.5434                 15.8                    !
 --------------------------------------------------------------------------------
                           ----------------------------
                           ! Normal Mode     3        !
 --------------------------                            --------------------------
 ! Name  Definition              Value          Relative Weight (%)             !
 --------------------------------------------------------------------------------
 ! R1    R(1,2)                  0.0                     0.0                    !
 ! R2    R(1,4)                  0.0                     0.0                    !
 ! R3    R(1,5)                  0.0                     0.0                    !
 ! R4    R(2,3)                  0.0                     0.0                    !
 ! R5    R(2,6)                  0.0                     0.0                    !
 ! R6    R(3,7)                  0.0                     0.0                    !
 ! R7    R(3,8)                  0.0                     0.0                    !
 ! R8    R(4,8)                  0.0                     0.0                    !
 ! A1    A(2,1,4)                0.0                     0.0                    !
 ! A2    A(2,1,5)                0.0                     0.0                    !
 ! A3    A(4,1,5)                0.0                     0.0                    !
 ! A4    A(1,2,3)                0.0                     0.0                    !
 ! A5    A(1,2,6)                0.0                     0.0                    !
 ! A6    A(3,2,6)                0.0                     0.0                    !
 ! A7    A(2,3,7)                0.0                     0.0                    !
 ! A8    A(2,3,8)                0.0                     0.0                    !
 ! A9    A(7,3,8)                0.0                     0.0                    !
 ! A10   A(1,4,8)                0.0                     0.0                    !
 ! A11   A(3,8,4)                0.0                     0.0                    !
 ! D1    D(4,1,2,3)              0.0525                  1.7                    !
 ! D2    D(4,1,2,6)              0.6271                 20.6                    !
 ! D3    D(5,1,2,3)             -0.4363                 14.3                    !
 ! D4    D(5,1,2,6)              0.1382                  4.5                    !
 ! D5    D(2,1,4,8)             -0.0741                  2.4                    !
 ! D6    D(5,1,4,8)              0.3195                 10.5                    !
 ! D7    D(1,2,3,7)              0.0995                  3.3                    !
 ! D8    D(1,2,3,8)             -0.0123                  0.4                    !
 ! D9    D(6,2,3,7)             -0.4766                 15.6                    !
 ! D10   D(6,2,3,8)             -0.5884                 19.3                    !
 ! D11   D(2,3,8,4)             -0.0302                  1.0                    !
 ! D12   D(7,3,8,4)             -0.1298                  4.3                    !
 ! D13   D(1,4,8,3)              0.0628                  2.1                    !
 --------------------------------------------------------------------------------
                           ----------------------------
                           ! Normal Mode     4        !
 --------------------------                            --------------------------
 ! Name  Definition              Value          Relative Weight (%)             !
 --------------------------------------------------------------------------------
 ! R1    R(1,2)                  0.0                     0.0                    !
 ! R2    R(1,4)                  0.0                     0.0                    !
 ! R3    R(1,5)                  0.0                     0.0                    !
 ! R4    R(2,3)                  0.0                     0.0                    !
 ! R5    R(2,6)                  0.0                     0.0                    !
 ! R6    R(3,7)                  0.0                     0.0                    !
 ! R7    R(3,8)                  0.0                     0.0                    !
 ! R8    R(4,8)                  0.0                     0.0                    !
 ! A1    A(2,1,4)                0.0                     0.0                    !
 ! A2    A(2,1,5)                0.0                     0.0                    !
 ! A3    A(4,1,5)                0.0                     0.0                    !
 ! A4    A(1,2,3)                0.0                     0.0                    !
 ! A5    A(1,2,6)                0.0                     0.0                    !
 ! A6    A(3,2,6)                0.0                     0.0                    !
 ! A7    A(2,3,7)                0.0                     0.0                    !
 ! A8    A(2,3,8)                0.0                     0.0                    !
 ! A9    A(7,3,8)                0.0                     0.0                    !
 ! A10   A(1,4,8)                0.0                     0.0                    !
 ! A11   A(3,8,4)                0.0                     0.0                    !
 ! D1    D(4,1,2,3)              0.1233                  3.0                    !
 ! D2    D(4,1,2,6)             -0.353                   8.5                    !
 ! D3    D(5,1,2,3)             -0.6745                 16.2                    !
 ! D4    D(5,1,2,6)             -1.1508                 27.6                    !
 ! D5    D(2,1,4,8)             -0.1278                  3.1                    !
 ! D6    D(5,1,4,8)              0.5145                 12.3                    !
 ! D7    D(1,2,3,7)             -0.2906                  7.0                    !
 ! D8    D(1,2,3,8)             -0.0791                  1.9                    !
 ! D9    D(6,2,3,7)              0.187                   4.5                    !
 ! D10   D(6,2,3,8)              0.3986                  9.6                    !
 ! D11   D(2,3,8,4)              0.0059                  0.1                    !
 ! D12   D(7,3,8,4)              0.1943                  4.7                    !
 ! D13   D(1,4,8,3)              0.0726                  1.7                    !
 --------------------------------------------------------------------------------
                           ----------------------------
                           ! Normal Mode     5        !
 --------------------------                            --------------------------
 ! Name  Definition              Value          Relative Weight (%)             !
 --------------------------------------------------------------------------------
 ! R1    R(1,2)                 -0.0134                  0.6                    !
 ! R2    R(1,4)                 -0.048                   2.2                    !
 ! R3    R(1,5)                  0.0152                  0.7                    !
 ! R4    R(2,3)                 -0.0306                  1.4                    !
 ! R5    R(2,6)                  0.0001                  0.0                    !
 ! R6    R(3,7)                  0.0173                  0.8                    !
 ! R7    R(3,8)                 -0.0009                  0.0                    !
 ! R8    R(4,8)                  0.7858                 36.3                    !
 ! A1    A(2,1,4)                0.1008                  4.7                    !
 ! A2    A(2,1,5)               -0.2879                 13.3                    !
 ! A3    A(4,1,5)                0.1872                  8.6                    !
 ! A4    A(1,2,3)                0.1177                  5.4                    !
 ! A5    A(1,2,6)               -0.0895                  4.1                    !
 ! A6    A(3,2,6)               -0.0283                  1.3                    !
 ! A7    A(2,3,7)               -0.0946                  4.4                    !
 ! A8    A(2,3,8)                0.0364                  1.7                    !
 ! A9    A(7,3,8)                0.0582                  2.7                    !
 ! A10   A(1,4,8)               -0.1767                  8.2                    !
 ! A11   A(3,8,4)               -0.0782                  3.6                    !
 ! D1    D(4,1,2,3)              0.0                     0.0                    !
 ! D2    D(4,1,2,6)              0.0                     0.0                    !
 ! D3    D(5,1,2,3)              0.0                     0.0                    !
 ! D4    D(5,1,2,6)              0.0                     0.0                    !
 ! D5    D(2,1,4,8)              0.0                     0.0                    !
 ! D6    D(5,1,4,8)              0.0                     0.0                    !
 ! D7    D(1,2,3,7)              0.0                     0.0                    !
 ! D8    D(1,2,3,8)              0.0                     0.0                    !
 ! D9    D(6,2,3,7)              0.0                     0.0                    !
 ! D10   D(6,2,3,8)              0.0                     0.0                    !
 ! D11   D(2,3,8,4)              0.0                     0.0                    !
 ! D12   D(7,3,8,4)              0.0                     0.0                    !
 ! D13   D(1,4,8,3)              0.0                     0.0                    !
 --------------------------------------------------------------------------------
                           ----------------------------
                           ! Normal Mode     6        !
 --------------------------                            --------------------------
 ! Name  Definition              Value          Relative Weight (%)             !
 --------------------------------------------------------------------------------
 ! R1    R(1,2)                  0.0                     0.0                    !
 ! R2    R(1,4)                  0.0                     0.0                    !
 ! R3    R(1,5)                  0.0                     0.0                    !
 ! R4    R(2,3)                  0.0                     0.0                    !
 ! R5    R(2,6)                  0.0                     0.0                    !
 ! R6    R(3,7)                  0.0                     0.0                    !
 ! R7    R(3,8)                  0.0                     0.0                    !
 ! R8    R(4,8)                  0.0                     0.0                    !
 ! A1    A(2,1,4)                0.0                     0.0                    !
 ! A2    A(2,1,5)                0.0                     0.0                    !
 ! A3    A(4,1,5)                0.0                     0.0                    !
 ! A4    A(1,2,3)                0.0                     0.0                    !
 ! A5    A(1,2,6)                0.0                     0.0                    !
 ! A6    A(3,2,6)                0.0                     0.0                    !
 ! A7    A(2,3,7)                0.0                     0.0                    !
 ! A8    A(2,3,8)                0.0                     0.0                    !
 ! A9    A(7,3,8)                0.0                     0.0                    !
 ! A10   A(1,4,8)                0.0                     0.0                    !
 ! A11   A(3,8,4)                0.0                     0.0                    !
 ! D1    D(4,1,2,3)              0.1261                  3.3                    !
 ! D2    D(4,1,2,6)             -0.2247                  5.9                    !
 ! D3    D(5,1,2,3)             -0.0372                  1.0                    !
 ! D4    D(5,1,2,6)             -0.388                  10.3                    !
 ! D5    D(2,1,4,8)             -0.0587                  1.6                    !
 ! D6    D(5,1,4,8)              0.0728                  1.9                    !
 ! D7    D(1,2,3,7)              0.6863                 18.2                    !
 ! D8    D(1,2,3,8)             -0.1594                  4.2                    !
 ! D9    D(6,2,3,7)              1.0381                 27.5                    !
 ! D10   D(6,2,3,8)              0.1923                  5.1                    !
 ! D11   D(2,3,8,4)              0.1262                  3.3                    !
 ! D12   D(7,3,8,4)             -0.6269                 16.6                    !
 ! D13   D(1,4,8,3)             -0.0427                  1.1                    !
 --------------------------------------------------------------------------------
                           ----------------------------
                           ! Normal Mode     7        !
 --------------------------                            --------------------------
 ! Name  Definition              Value          Relative Weight (%)             !
 --------------------------------------------------------------------------------
 ! R1    R(1,2)                 -0.025                   1.0                    !
 ! R2    R(1,4)                  0.0208                  0.8                    !
 ! R3    R(1,5)                  0.0113                  0.4                    !
 ! R4    R(2,3)                  0.0512                  2.0                    !
 ! R5    R(2,6)                 -0.0054                  0.2                    !
 ! R6    R(3,7)                  0.0009                  0.0                    !
 ! R7    R(3,8)                 -0.0348                  1.4                    !
 ! R8    R(4,8)                  0.0562                  2.2                    !
 ! A1    A(2,1,4)               -0.3317                 12.9                    !
 ! A2    A(2,1,5)                0.3359                 13.1                    !
 ! A3    A(4,1,5)               -0.0042                  0.2                    !
 ! A4    A(1,2,3)                0.1867                  7.3                    !
 ! A5    A(1,2,6)                0.1653                  6.4                    !
 ! A6    A(3,2,6)               -0.352                  13.7                    !
 ! A7    A(2,3,7)               -0.2153                  8.4                    !
 ! A8    A(2,3,8)                0.0319                  1.2                    !
 ! A9    A(7,3,8)                0.1835                  7.1                    !
 ! A10   A(1,4,8)                0.3361                 13.1                    !
 ! A11   A(3,8,4)               -0.2229                  8.7                    !
 ! D1    D(4,1,2,3)              0.0                     0.0                    !
 ! D2    D(4,1,2,6)              0.0                     0.0                    !
 ! D3    D(5,1,2,3)              0.0                     0.0                    !
 ! D4    D(5,1,2,6)              0.0                     0.0                    !
 ! D5    D(2,1,4,8)              0.0                     0.0                    !
 ! D6    D(5,1,4,8)              0.0                     0.0                    !
 ! D7    D(1,2,3,7)              0.0                     0.0                    !
 ! D8    D(1,2,3,8)              0.0                     0.0                    !
 ! D9    D(6,2,3,7)              0.0                     0.0                    !
 ! D10   D(6,2,3,8)              0.0                     0.0                    !
 ! D11   D(2,3,8,4)              0.0                     0.0                    !
 ! D12   D(7,3,8,4)              0.0                     0.0                    !
 ! D13   D(1,4,8,3)              0.0                     0.0                    !
 --------------------------------------------------------------------------------
                           ----------------------------
                           ! Normal Mode     8        !
 --------------------------                            --------------------------
 ! Name  Definition              Value          Relative Weight (%)             !
 --------------------------------------------------------------------------------
 ! R1    R(1,2)                 -0.0147                  0.5                    !
 ! R2    R(1,4)                  0.07                    2.5                    !
 ! R3    R(1,5)                 -0.0006                  0.0                    !
 ! R4    R(2,3)                  0.0616                  2.2                    !
 ! R5    R(2,6)                  0.0092                  0.3                    !
 ! R6    R(3,7)                 -0.0049                  0.2                    !
 ! R7    R(3,8)                  0.0183                  0.6                    !
 ! R8    R(4,8)                  0.2258                  8.0                    !
 ! A1    A(2,1,4)                0.2335                  8.3                    !
 ! A2    A(2,1,5)               -0.0427                  1.5                    !
 ! A3    A(4,1,5)               -0.1908                  6.7                    !
 ! A4    A(1,2,3)               -0.3552                 12.5                    !
 ! A5    A(1,2,6)                0.3412                 12.1                    !
 ! A6    A(3,2,6)                0.014                   0.5                    !
 ! A7    A(2,3,7)               -0.3676                 13.0                    !
 ! A8    A(2,3,8)                0.4543                 16.1                    !
 ! A9    A(7,3,8)               -0.0867                  3.1                    !
 ! A10   A(1,4,8)                0.0035                  0.1                    !
 ! A11   A(3,8,4)               -0.3361                 11.9                    !
 ! D1    D(4,1,2,3)              0.0                     0.0                    !
 ! D2    D(4,1,2,6)              0.0                     0.0                    !
 ! D3    D(5,1,2,3)              0.0                     0.0                    !
 ! D4    D(5,1,2,6)              0.0                     0.0                    !
 ! D5    D(2,1,4,8)              0.0                     0.0                    !
 ! D6    D(5,1,4,8)              0.0                     0.0                    !
 ! D7    D(1,2,3,7)              0.0                     0.0                    !
 ! D8    D(1,2,3,8)              0.0                     0.0                    !
 ! D9    D(6,2,3,7)              0.0                     0.0                    !
 ! D10   D(6,2,3,8)              0.0                     0.0                    !
 ! D11   D(2,3,8,4)              0.0                     0.0                    !
 ! D12   D(7,3,8,4)              0.0                     0.0                    !
 ! D13   D(1,4,8,3)              0.0                     0.0                    !
 --------------------------------------------------------------------------------
                           ----------------------------
                           ! Normal Mode     9        !
 --------------------------                            --------------------------
 ! Name  Definition              Value          Relative Weight (%)             !
 --------------------------------------------------------------------------------
 ! R1    R(1,2)                 -0.0562                  3.3                    !
 ! R2    R(1,4)                 -0.0883                  5.1                    !
 ! R3    R(1,5)                  0.0011                  0.1                    !
 ! R4    R(2,3)                  0.2219                 12.9                    !
 ! R5    R(2,6)                  0.0067                  0.4                    !
 ! R6    R(3,7)                  0.0087                  0.5                    !
 ! R7    R(3,8)                  0.0239                  1.4                    !
 ! R8    R(4,8)                  0.0438                  2.6                    !
 ! A1    A(2,1,4)                0.0416                  2.4                    !
 ! A2    A(2,1,5)               -0.032                   1.9                    !
 ! A3    A(4,1,5)               -0.0096                  0.6                    !
 ! A4    A(1,2,3)               -0.0369                  2.1                    !
 ! A5    A(1,2,6)               -0.3497                 20.4                    !
 ! A6    A(3,2,6)                0.3865                 22.5                    !
 ! A7    A(2,3,7)                0.1513                  8.8                    !
 ! A8    A(2,3,8)               -0.026                   1.5                    !
 ! A9    A(7,3,8)               -0.1253                  7.3                    !
 ! A10   A(1,4,8)                0.0648                  3.8                    !
 ! A11   A(3,8,4)               -0.0436                  2.5                    !
 ! D1    D(4,1,2,3)              0.0                     0.0                    !
 ! D2    D(4,1,2,6)              0.0                     0.0                    !
 ! D3    D(5,1,2,3)              0.0                     0.0                    !
 ! D4    D(5,1,2,6)              0.0                     0.0                    !
 ! D5    D(2,1,4,8)              0.0                     0.0                    !
 ! D6    D(5,1,4,8)              0.0                     0.0                    !
 ! D7    D(1,2,3,7)              0.0                     0.0                    !
 ! D8    D(1,2,3,8)              0.0                     0.0                    !
 ! D9    D(6,2,3,7)              0.0                     0.0                    !
 ! D10   D(6,2,3,8)              0.0                     0.0                    !
 ! D11   D(2,3,8,4)              0.0                     0.0                    !
 ! D12   D(7,3,8,4)              0.0                     0.0                    !
 ! D13   D(1,4,8,3)              0.0                     0.0                    !
 --------------------------------------------------------------------------------
                           ----------------------------
                           ! Normal Mode    10        !
 --------------------------                            --------------------------
 ! Name  Definition              Value          Relative Weight (%)             !
 --------------------------------------------------------------------------------
 ! R1    R(1,2)                  0.1124                  4.7                    !
 ! R2    R(1,4)                  0.3646                 15.2                    !
 ! R3    R(1,5)                  0.018                   0.8                    !
 ! R4    R(2,3)                  0.2714                 11.3                    !
 ! R5    R(2,6)                  0.0218                  0.9                    !
 ! R6    R(3,7)                  0.0175                  0.7                    !
 ! R7    R(3,8)                 -0.0795                  3.3                    !
 ! R8    R(4,8)                  0.0325                  1.4                    !
 ! A1    A(2,1,4)               -0.0588                  2.5                    !
 ! A2    A(2,1,5)                0.1244                  5.2                    !
 ! A3    A(4,1,5)               -0.0656                  2.7                    !
 ! A4    A(1,2,3)                0.0034                  0.1                    !
 ! A5    A(1,2,6)                0.1925                  8.0                    !
 ! A6    A(3,2,6)               -0.1959                  8.2                    !
 ! A7    A(2,3,7)                0.3289                 13.7                    !
 ! A8    A(2,3,8)               -0.0183                  0.8                    !
 ! A9    A(7,3,8)               -0.3107                 13.0                    !
 ! A10   A(1,4,8)               -0.0531                  2.2                    !
 ! A11   A(3,8,4)                0.1267                  5.3                    !
 ! D1    D(4,1,2,3)              0.0                     0.0                    !
 ! D2    D(4,1,2,6)              0.0                     0.0                    !
 ! D3    D(5,1,2,3)              0.0                     0.0                    !
 ! D4    D(5,1,2,6)              0.0                     0.0                    !
 ! D5    D(2,1,4,8)              0.0                     0.0                    !
 ! D6    D(5,1,4,8)              0.0                     0.0                    !
 ! D7    D(1,2,3,7)              0.0                     0.0                    !
 ! D8    D(1,2,3,8)              0.0                     0.0                    !
 ! D9    D(6,2,3,7)              0.0                     0.0                    !
 ! D10   D(6,2,3,8)              0.0                     0.0                    !
 ! D11   D(2,3,8,4)              0.0                     0.0                    !
 ! D12   D(7,3,8,4)              0.0                     0.0                    !
 ! D13   D(1,4,8,3)              0.0                     0.0                    !
 --------------------------------------------------------------------------------
                           ----------------------------
                           ! Normal Mode    11        !
 --------------------------                            --------------------------
 ! Name  Definition              Value          Relative Weight (%)             !
 --------------------------------------------------------------------------------
 ! R1    R(1,2)                 -0.1368                  6.9                    !
 ! R2    R(1,4)                  0.2547                 12.9                    !
 ! R3    R(1,5)                 -0.0058                  0.3                    !
 ! R4    R(2,3)                 -0.0263                  1.3                    !
 ! R5    R(2,6)                 -0.0041                  0.2                    !
 ! R6    R(3,7)                 -0.0072                  0.4                    !
 ! R7    R(3,8)                 -0.0092                  0.5                    !
 ! R8    R(4,8)                 -0.1305                  6.6                    !
 ! A1    A(2,1,4)               -0.0735                  3.7                    !
 ! A2    A(2,1,5)               -0.3212                 16.3                    !
 ! A3    A(4,1,5)                0.3947                 20.0                    !
 ! A4    A(1,2,3)                0.065                   3.3                    !
 ! A5    A(1,2,6)               -0.1803                  9.1                    !
 ! A6    A(3,2,6)                0.1152                  5.8                    !
 ! A7    A(2,3,7)               -0.1067                  5.4                    !
 ! A8    A(2,3,8)               -0.0039                  0.2                    !
 ! A9    A(7,3,8)                0.1106                  5.6                    !
 ! A10   A(1,4,8)               -0.0087                  0.4                    !
 ! A11   A(3,8,4)                0.0211                  1.1                    !
 ! D1    D(4,1,2,3)              0.0                     0.0                    !
 ! D2    D(4,1,2,6)              0.0                     0.0                    !
 ! D3    D(5,1,2,3)              0.0                     0.0                    !
 ! D4    D(5,1,2,6)              0.0                     0.0                    !
 ! D5    D(2,1,4,8)              0.0                     0.0                    !
 ! D6    D(5,1,4,8)              0.0                     0.0                    !
 ! D7    D(1,2,3,7)              0.0                     0.0                    !
 ! D8    D(1,2,3,8)              0.0                     0.0                    !
 ! D9    D(6,2,3,7)              0.0                     0.0                    !
 ! D10   D(6,2,3,8)              0.0                     0.0                    !
 ! D11   D(2,3,8,4)              0.0                     0.0                    !
 ! D12   D(7,3,8,4)              0.0                     0.0                    !
 ! D13   D(1,4,8,3)              0.0                     0.0                    !
 --------------------------------------------------------------------------------
                           ----------------------------
                           ! Normal Mode    12        !
 --------------------------                            --------------------------
 ! Name  Definition              Value          Relative Weight (%)             !
 --------------------------------------------------------------------------------
 ! R1    R(1,2)                  0.0565                  2.3                    !
 ! R2    R(1,4)                  0.1646                  6.6                    !
 ! R3    R(1,5)                  0.0069                  0.3                    !
 ! R4    R(2,3)                  0.1201                  4.8                    !
 ! R5    R(2,6)                  0.0162                  0.6                    !
 ! R6    R(3,7)                  0.0132                  0.5                    !
 ! R7    R(3,8)                  0.1824                  7.3                    !
 ! R8    R(4,8)                 -0.0678                  2.7                    !
 ! A1    A(2,1,4)               -0.0113                  0.5                    !
 ! A2    A(2,1,5)                0.2641                 10.6                    !
 ! A3    A(4,1,5)               -0.2528                 10.1                    !
 ! A4    A(1,2,3)                0.0334                  1.3                    !
 ! A5    A(1,2,6)               -0.1485                  5.9                    !
 ! A6    A(3,2,6)                0.1151                  4.6                    !
 ! A7    A(2,3,7)               -0.3964                 15.9                    !
 ! A8    A(2,3,8)               -0.0891                  3.6                    !
 ! A9    A(7,3,8)                0.4854                 19.4                    !
 ! A10   A(1,4,8)               -0.0038                  0.2                    !
 ! A11   A(3,8,4)                0.0708                  2.8                    !
 ! D1    D(4,1,2,3)              0.0                     0.0                    !
 ! D2    D(4,1,2,6)              0.0                     0.0                    !
 ! D3    D(5,1,2,3)              0.0                     0.0                    !
 ! D4    D(5,1,2,6)              0.0                     0.0                    !
 ! D5    D(2,1,4,8)              0.0                     0.0                    !
 ! D6    D(5,1,4,8)              0.0                     0.0                    !
 ! D7    D(1,2,3,7)              0.0                     0.0                    !
 ! D8    D(1,2,3,8)              0.0                     0.0                    !
 ! D9    D(6,2,3,7)              0.0                     0.0                    !
 ! D10   D(6,2,3,8)              0.0                     0.0                    !
 ! D11   D(2,3,8,4)              0.0                     0.0                    !
 ! D12   D(7,3,8,4)              0.0                     0.0                    !
 ! D13   D(1,4,8,3)              0.0                     0.0                    !
 --------------------------------------------------------------------------------
                           ----------------------------
                           ! Normal Mode    13        !
 --------------------------                            --------------------------
 ! Name  Definition              Value          Relative Weight (%)             !
 --------------------------------------------------------------------------------
 ! R1    R(1,2)                 -0.0002                  0.0                    !
 ! R2    R(1,4)                 -0.2386                  6.9                    !
 ! R3    R(1,5)                 -0.006                   0.2                    !
[...]
     10   0.000000D+00  0.000000D+00  0.000000D+00  0.000000D+00  0.000000D+00
     11   0.000000D+00  0.000000D+00  0.000000D+00  0.000000D+00  0.000000D+00
     12   0.000000D+00  0.000000D+00  0.000000D+00  0.000000D+00  0.000000D+00
                11            12            13            14            15 
      1  -0.228978D+00 -0.217387D+00  0.217387D+00  0.347029D+00  0.347029D+00
      2   0.319947D+00 -0.322761D+00  0.322761D+00 -0.133221D+00 -0.133221D+00
      3   0.000000D+00  0.000000D+00  0.000000D+00  0.000000D+00  0.000000D+00
      4   0.711912D+00  0.564415D+00 -0.688649D-01 -0.495551D+00 -0.769157D+00
      5  -0.237817D+00  0.189540D+00 -0.790406D+00  0.600866D+00 -0.113395D+00
      6   0.000000D+00  0.000000D+00  0.000000D+00  0.000000D+00  0.000000D+00
      7  -0.482934D+00 -0.347029D+00 -0.148522D+00  0.148522D+00  0.422128D+00
      8  -0.821300D-01  0.133221D+00  0.467645D+00 -0.467645D+00  0.246616D+00
      9   0.000000D+00  0.000000D+00  0.000000D+00  0.000000D+00  0.000000D+00
     10   0.000000D+00  0.000000D+00  0.000000D+00  0.000000D+00  0.000000D+00
     11   0.000000D+00  0.000000D+00  0.000000D+00  0.000000D+00  0.000000D+00
     12   0.000000D+00  0.000000D+00  0.000000D+00  0.000000D+00  0.000000D+00
                16            17            18            19            20 
      1  -0.347029D+00 -0.422128D+00  0.228978D+00 -0.105279D-01  0.000000D+00
      2   0.133221D+00 -0.246616D+00 -0.319947D+00  0.402986D+00  0.000000D+00
      3   0.000000D+00  0.000000D+00  0.000000D+00  0.000000D+00  0.419902D+00
      4   0.357557D+00  0.411601D+00 -0.591652D+00 -0.352146D+00  0.000000D+00
      5  -0.536207D+00  0.649602D+00  0.211920D+00 -0.511013D+00  0.000000D+00
      6   0.000000D+00  0.000000D+00  0.000000D+00  0.000000D+00 -0.654551D+00
      7  -0.105279D-01  0.105279D-01  0.362674D+00  0.362674D+00  0.000000D+00
      8   0.402986D+00 -0.402986D+00  0.108027D+00  0.108027D+00  0.000000D+00
      9   0.000000D+00  0.000000D+00  0.000000D+00  0.000000D+00  0.616087D+00
     10   0.000000D+00  0.000000D+00  0.000000D+00  0.000000D+00  0.000000D+00
     11   0.000000D+00  0.000000D+00  0.000000D+00  0.000000D+00  0.000000D+00
     12   0.000000D+00  0.000000D+00  0.000000D+00  0.000000D+00 -0.381438D+00
                21            22            23            24            25 
      1   0.000000D+00  0.000000D+00  0.000000D+00  0.000000D+00  0.000000D+00
      2   0.000000D+00  0.000000D+00  0.000000D+00  0.000000D+00  0.000000D+00
      3   0.419902D+00 -0.676597D+00 -0.676597D+00 -0.415312D+00  0.544744D+00
      4   0.000000D+00  0.000000D+00  0.000000D+00  0.000000D+00  0.000000D+00
      5   0.000000D+00  0.000000D+00  0.000000D+00  0.000000D+00  0.000000D+00
      6  -0.256354D+00  0.957784D+00  0.135598D+01  0.697511D+00 -0.600618D+00
      7   0.000000D+00  0.000000D+00  0.000000D+00  0.000000D+00  0.000000D+00
      8   0.000000D+00  0.000000D+00  0.000000D+00  0.000000D+00  0.000000D+00
      9  -0.789805D+00  0.100251D+00 -0.130564D+01 -0.682433D+00 -0.344360D+00
     10   0.000000D+00  0.000000D+00  0.000000D+00  0.000000D+00  0.000000D+00
     11   0.000000D+00  0.000000D+00  0.000000D+00  0.000000D+00  0.000000D+00
     12   0.626258D+00 -0.381438D+00  0.626258D+00  0.400234D+00  0.400234D+00
                26            27            28            29            30 
      1   0.000000D+00  0.000000D+00  0.000000D+00  0.000000D+00  0.000000D+00
      2   0.000000D+00  0.000000D+00  0.000000D+00  0.000000D+00  0.000000D+00
      3   0.399313D+00  0.399313D+00 -0.628014D+00 -0.628014D+00  0.402342D+00
      4   0.000000D+00  0.000000D+00  0.000000D+00  0.000000D+00  0.000000D+00
      5   0.000000D+00  0.000000D+00  0.000000D+00  0.000000D+00  0.000000D+00
      6  -0.187006D+00 -0.638813D+00  0.122283D+01  0.771022D+00 -0.678001D+00
      7   0.000000D+00  0.000000D+00  0.000000D+00  0.000000D+00  0.000000D+00
      8   0.000000D+00  0.000000D+00  0.000000D+00  0.000000D+00  0.000000D+00
      9  -0.838780D+00  0.675830D+00 -0.122129D+01  0.293323D+00  0.667595D+00
     10   0.000000D+00  0.000000D+00  0.000000D+00  0.000000D+00  0.000000D+00
     11   0.000000D+00  0.000000D+00  0.000000D+00  0.000000D+00  0.000000D+00
     12   0.626473D+00 -0.436331D+00  0.626473D+00 -0.436331D+00 -0.391936D+00
                31            32 
      1   0.000000D+00  0.000000D+00
      2   0.000000D+00  0.000000D+00
      3  -0.557885D+00 -0.416121D+00
      4   0.000000D+00  0.000000D+00
      5   0.000000D+00  0.000000D+00
      6   0.670786D+00  0.648485D+00
      7   0.000000D+00  0.000000D+00
      8   0.000000D+00  0.000000D+00
      9   0.279035D+00 -0.649885D+00
     10   0.000000D+00  0.000000D+00
     11   0.000000D+00  0.000000D+00
     12  -0.391936D+00  0.417521D+00
 Iteration  1 RMS(Cart)=  0.00034861 RMS(Int)=  0.00000015
 Iteration  2 RMS(Cart)=  0.00000014 RMS(Int)=  0.00000000
 Input Coordinates in SymCor: 
                 1             2             3             4             5 
      1  -0.115843D-03 -0.213130D+01 -0.116671D+01  0.206735D+01  0.342126D+00
      2  -0.213136D+01 -0.695659D+00  0.181549D+01 -0.652601D+00 -0.414378D+01
      3   0.000000D+00  0.000000D+00  0.000000D+00  0.000000D+00  0.000000D+00
                 6             7             8 
      1  -0.407397D+01 -0.220013D+01  0.131280D+01
      2  -0.131197D+01  0.358070D+01  0.188074D+01
      3   0.000000D+00  0.000000D+00  0.000000D+00
 Symmetrized Coordinates in SymCor: 
                 1             2             3             4             5 
      1   0.115843D-03  0.213130D+01  0.116671D+01 -0.206735D+01 -0.342126D+00
      2   0.213136D+01  0.695659D+00 -0.181549D+01  0.652601D+00  0.414378D+01
      3   0.000000D+00  0.000000D+00  0.000000D+00  0.000000D+00  0.000000D+00
                 6             7             8 
      1   0.407397D+01  0.220013D+01 -0.131280D+01
      2   0.131198D+01 -0.358070D+01 -0.188074D+01
      3   0.000000D+00  0.000000D+00  0.000000D+00
 Final Coordinates in SymCor: 
                 1             2             3             4             5 
      1  -0.115843D-03 -0.213130D+01 -0.116671D+01  0.206735D+01  0.342126D+00
      2  -0.213136D+01 -0.695659D+00  0.181549D+01 -0.652601D+00 -0.414378D+01
      3   0.000000D+00  0.000000D+00  0.000000D+00  0.000000D+00  0.000000D+00
                 6             7             8 
      1  -0.407397D+01 -0.220013D+01  0.131280D+01
      2  -0.131197D+01  0.358070D+01  0.188074D+01
      3   0.000000D+00  0.000000D+00  0.000000D+00
 ClnCor:  largest displacement from symmetrization is 6.70D-13 for atom     5.
 Variable       Old X    -DE/DX   Delta X   Delta X   Delta X     New X
                                 (Linear)    (Quad)   (Total)
    R1        2.56976  -0.00003   0.00000  -0.00009  -0.00009   2.56966
    R2        2.54167   0.00009   0.00000   0.00021   0.00021   2.54188
    R3        2.04137  -0.00003   0.00000  -0.00005  -0.00005   2.04131
    R4        2.69019  -0.00008   0.00000  -0.00015  -0.00015   2.69004
    R5        2.03806   0.00002   0.00000   0.00004   0.00004   2.03810
    R6        2.04546  -0.00001   0.00000   0.00001   0.00001   2.04547
    R7        2.48063  -0.00006   0.00000  -0.00026  -0.00026   2.48037
    R8        2.64256   0.00014   0.00000   0.00077   0.00077   2.64333
    A1        1.92769   0.00004   0.00000   0.00018   0.00018   1.92787
    A2        2.33198  -0.00000   0.00000   0.00010   0.00010   2.33208
    A3        2.02351  -0.00003   0.00000  -0.00028  -0.00028   2.02323
    A4        1.79699  -0.00001   0.00000  -0.00011  -0.00011   1.79688
    A5        2.24134   0.00002   0.00000   0.00021   0.00021   2.24155
    A6        2.24486  -0.00001   0.00000  -0.00011  -0.00011   2.24475
    A7        2.24632  -0.00014   0.00000  -0.00111  -0.00111   2.24520
    A8        1.96346   0.00009   0.00000   0.00040   0.00040   1.96385
    A9        2.07341   0.00006   0.00000   0.00072   0.00072   2.07413
   A10        1.90247  -0.00009   0.00000  -0.00027  -0.00027   1.90220
   A11        1.83417  -0.00002   0.00000  -0.00021  -0.00021   1.83397
    D1        0.00000  -0.00000   0.00000  -0.00000   0.00000   0.00000
    D2        3.14159  -0.00000   0.00000   0.00000   0.00000   3.14159
    D3        3.14159   0.00000   0.00000  -0.00000   0.00000   3.14159
    D4        0.00000   0.00000   0.00000  -0.00000   0.00000   0.00000
    D5        0.00000   0.00000   0.00000  -0.00000   0.00000   0.00000
    D6        3.14159  -0.00000   0.00000   0.00000   0.00000   3.14159
    D7        3.14159   0.00000   0.00000  -0.00000   0.00000   3.14159
    D8        0.00000  -0.00000   0.00000   0.00000   0.00000   0.00000
    D9        0.00000   0.00000   0.00000  -0.00000   0.00000   0.00000
   D10        3.14159  -0.00000   0.00000  -0.00000   0.00000   3.14159
   D11        0.00000   0.00000   0.00000  -0.00000   0.00000   0.00000
   D12        3.14159  -0.00000   0.00000  -0.00000   0.00000   3.14159
   D13        0.00000  -0.00000   0.00000   0.00000   0.00000   0.00000
         Item               Value     Threshold  Converged?
 Maximum Force            0.000145     0.000450     YES
 RMS     Force            0.000051     0.000300     YES
 Maximum Displacement     0.001049     0.001800     YES
 RMS     Displacement     0.000349     0.001200     YES
 Predicted change in Energy=-2.213540D-07
 Optimization completed.
    -- Stationary point found.
                           ----------------------------
                           !   Optimized Parameters   !
                           ! (Angstroms and Degrees)  !
 --------------------------                            --------------------------
 ! Name  Definition              Value          Derivative Info.                !
 --------------------------------------------------------------------------------
 ! R1    R(1,2)                  1.3599         -DE/DX =    0.0                 !
 ! R2    R(1,4)                  1.345          -DE/DX =    0.0001              !
 ! R3    R(1,5)                  1.0802         -DE/DX =    0.0                 !
 ! R4    R(2,3)                  1.4236         -DE/DX =   -0.0001              !
 ! R5    R(2,6)                  1.0785         -DE/DX =    0.0                 !
 ! R6    R(3,7)                  1.0824         -DE/DX =    0.0                 !
 ! R7    R(3,8)                  1.3127         -DE/DX =   -0.0001              !
 ! R8    R(4,8)                  1.3984         -DE/DX =    0.0001              !
 ! A1    A(2,1,4)              110.4485         -DE/DX =    0.0                 !
 ! A2    A(2,1,5)              133.6128         -DE/DX =    0.0                 !
 ! A3    A(4,1,5)              115.9387         -DE/DX =    0.0                 !
 ! A4    A(1,2,3)              102.9599         -DE/DX =    0.0                 !
 ! A5    A(1,2,6)              128.4193         -DE/DX =    0.0                 !
 ! A6    A(3,2,6)              128.6209         -DE/DX =    0.0                 !
 ! A7    A(2,3,7)              128.7044         -DE/DX =   -0.0001              !
 ! A8    A(2,3,8)              112.4978         -DE/DX =    0.0001              !
 ! A9    A(7,3,8)              118.7979         -DE/DX =    0.0001              !
 ! A10   A(1,4,8)              109.0035         -DE/DX =   -0.0001              !
 ! A11   A(3,8,4)              105.0904         -DE/DX =    0.0                 !
 ! D1    D(4,1,2,3)              0.0            -DE/DX =    0.0                 !
 ! D2    D(4,1,2,6)            180.0            -DE/DX =    0.0                 !
 ! D3    D(5,1,2,3)            180.0            -DE/DX =    0.0                 !
 ! D4    D(5,1,2,6)              0.0            -DE/DX =    0.0                 !
 ! D5    D(2,1,4,8)              0.0            -DE/DX =    0.0                 !
 ! D6    D(5,1,4,8)            180.0            -DE/DX =    0.0                 !
 ! D7    D(1,2,3,7)            180.0            -DE/DX =    0.0                 !
 ! D8    D(1,2,3,8)              0.0            -DE/DX =    0.0                 !
 ! D9    D(6,2,3,7)              0.0            -DE/DX =    0.0                 !
 ! D10   D(6,2,3,8)            180.0            -DE/DX =    0.0                 !
 ! D11   D(2,3,8,4)              0.0            -DE/DX =    0.0                 !
 ! D12   D(7,3,8,4)            180.0            -DE/DX =    0.0                 !
 ! D13   D(1,4,8,3)              0.0            -DE/DX =    0.0                 !
 --------------------------------------------------------------------------------
 GradGradGradGradGradGradGradGradGradGradGradGradGradGradGradGradGradGrad

 Leave Link  103 at Sat Aug 10 16:34:02 2019, MaxMem=  4294967296 cpu:               8.4 elap:               0.7

 ----------------------------------------------------------------------

 Electric dipole moment (input orientation):
 (Debye = 10**-18 statcoulomb cm , SI units = C m)
                  (au)            (Debye)         (10**-30 SI)
   Tot        0.116613D+01      0.296402D+01      0.988690D+01
   x         -0.100593D+01     -0.255682D+01     -0.852862D+01
   y         -0.589895D+00     -0.149936D+01     -0.500134D+01
   z          0.000000D+00      0.000000D+00      0.000000D+00

 Dipole polarizability, Alpha (input orientation).
 (esu units = cm**3 , SI units = C**2 m**2 J**-1)
 Alpha(0;0):
               (au)            (10**-24 esu)      (10**-40 SI)
   iso        0.340372D+02      0.504379D+01      0.561197D+01
   aniso      0.266128D+02      0.394361D+01      0.438786D+01
   xx         0.405071D+02      0.600253D+01      0.667871D+01
   yx        -0.167647D+01     -0.248427D+00     -0.276412D+00
   yy         0.450105D+02      0.666987D+01      0.742123D+01
   zx         0.000000D+00      0.000000D+00      0.000000D+00
   zy         0.000000D+00      0.000000D+00      0.000000D+00
   zz         0.165940D+02      0.245897D+01      0.273597D+01

 ----------------------------------------------------------------------

 Dipole orientation:
     6          0.93006752         -1.58601332          1.07819122
     6         -0.24175024          0.41224867          2.19059706
     6         -1.09094999          1.86036088          0.08847114
     8          0.81349122         -1.38721963         -1.45300987
     1          1.89580796         -3.23285851          1.80097932
     1         -0.46960678          0.80080489          4.17825382
     1         -2.12565370          3.62480683          0.08512241
     7         -0.48466809          0.82648843         -2.08340683

 Electric dipole moment (dipole orientation):
 (Debye = 10**-18 statcoulomb cm , SI units = C m)
                  (au)            (Debye)         (10**-30 SI)
   Tot        0.116613D+01      0.296402D+01      0.988690D+01
   x          0.000000D+00      0.000000D+00      0.000000D+00
   y          0.000000D+00      0.000000D+00      0.000000D+00
   z          0.116613D+01      0.296402D+01      0.988690D+01

 Dipole polarizability, Alpha (dipole orientation).
 (esu units = cm**3 , SI units = C**2 m**2 J**-1)
 Alpha(0;0):
               (au)            (10**-24 esu)      (10**-40 SI)
   iso        0.340372D+02      0.504379D+01      0.561197D+01
   aniso      0.266128D+02      0.394361D+01      0.438786D+01
   xx         0.239450D+02      0.354828D+01      0.394799D+01
   yx        -0.125354D+02     -0.185756D+01     -0.206681D+01
   yy         0.379702D+02      0.562661D+01      0.626044D+01
   zx         0.580039D+00      0.859529D-01      0.956355D-01
   zy        -0.989121D+00     -0.146573D+00     -0.163084D+00
   zz         0.401964D+02      0.595649D+01      0.662748D+01

 ----------------------------------------------------------------------

 Test job not archived.
 1\1\NSC-N1268\Freq\RB3LYP\6-31G(d,p)\C3H3N1O1\X_KJEJO\10-Aug-2019\0\\#
  freq(intmodes) iop(1/33=3) b3lyp/6-31g(d,p) geom=connectivity iop(7/7
 5=-1)\\name\\0,1\C,0.,-1.1279,0.\C,-1.127888,-0.368242,0.\C,-0.617691,
 0.960778,0.\O,1.093748,-0.345133,0.\H,0.181111,-2.192854,0.\H,-2.15578
 6,-0.694697,0.\H,-1.163704,1.895379,0.\N,0.694554,0.99506,0.\\Version=
 ES64L-G16RevB.01\State=1-A'\HF=-246.0396368\RMSD=5.029e-09\RMSF=8.241e
 -05\ZeroPoint=0.0580761\Thermal=0.0616516\Dipole=-1.0059288,-0.5898953
 ,0.\DipoleDeriv=0.5025044,-0.1372815,0.,-0.0205691,0.1561699,0.,0.,0.,
 0.0196948,-0.0439123,0.1321427,0.,0.1409526,-0.2924227,0.,0.,0.,-0.179
 9265,0.056463,0.1133047,0.,-0.0087164,0.4477415,0.,0.,0.,0.0250863,-0.
 6158346,0.1562941,0.,0.174597,-0.3406368,0.,0.,0.,-0.113159,0.0890403,
 0.0106528,0.,0.0070533,0.0144883,0.,0.,0.,0.1638646,0.0168299,-0.03919
 16,0.,-0.0480784,0.0897881,0.,0.,0.,0.1548768,0.079415,0.0358065,0.,0.
 0452636,0.0039832,0.,0.,0.,0.1306991,-0.0845058,-0.2717277,0.,-0.29050
 26,-0.0791114,0.,0.,0.,-0.201136\Polar=40.5070548,-1.6764688,45.010529
 5,0.,0.,16.5939583\Quadrupole=-0.5586533,2.0494006,-1.4907473,-1.82876
 18,0.,0.\PG=CS [SG(C3H3N1O1)]\NImag=0\\0.63783197,-0.13930384,0.859548
 33,0.,0.,0.13026482,-0.32817055,0.16524159,0.,0.91101897,0.13601774,-0
 .21329171,0.,0.03093173,0.57215812,0.,0.,-0.06151297,0.,0.,0.11008821,
 0.04535707,-0.00105948,0.,-0.13218201,-0.03089920,0.,0.74490552,0.0706
 3422,-0.05458777,0.,-0.07125717,-0.26188426,0.,-0.12109857,0.76911985,
 0.,0.,0.00996102,0.,0.,-0.06184307,0.,0.,0.13745332,-0.24183660,-0.060
 38309,0.,-0.09124602,0.02513194,0.,-0.08345488,0.03538853,0.,0.5020079
 4,-0.09235147,-0.14515692,0.,-0.03711162,0.00456111,0.,0.05523317,-0.0
 6578869,0.,0.02208938,0.36175207,0.,0.,-0.06530032,0.,0.,0.01356667,0.
 ,0.,0.01130287,0.,0.,0.09549015,-0.06851763,0.06608332,0.,0.00834043,0
 .02024242,0.,-0.00576135,0.00338321,0.,0.00705116,-0.03467583,0.,0.062
 65912,0.05629416,-0.34956366,0.,-0.00337987,-0.00139707,0.,-0.00062722
 ,-0.00089416,0.,0.00198898,-0.01869891,0.,-0.05290457,0.36886473,0.,0.
 ,-0.03010674,0.,0.,0.00313235,0.,0.,0.00597336,0.,0.,-0.00434423,0.,0.
 ,0.02180566,-0.00992598,-0.01241632,0.,-0.33796854,-0.08748572,0.,0.00
 061878,0.00252802,0.,-0.00270745,0.00014482,0.,0.00008722,0.00042622,0
 .,0.35020325,0.01637069,0.01254855,0.,-0.08943256,-0.08456706,0.,-0.02
 552447,0.00348184,0.,0.00650459,-0.00141396,0.,-0.00069704,-0.00021571
 ,0.,0.09540695,0.07672623,0.,0.,-0.00344332,0.,0.,-0.02633530,0.,0.,-0
 .00362857,0.,0.,0.00911174,0.,0.,-0.00225709,0.,0.,0.02193701,-0.00451
 125,-0.00561396,0.,0.01236243,-0.01132304,0.,-0.12797843,0.12164711,0.
 ,-0.00624559,0.00453176,0.,0.00116919,-0.00006698,0.,-0.00013065,0.000
 86374,0.,0.13555344,-0.00175280,-0.00411134,0.,0.01451795,-0.00908868,
 0.,0.12851017,-0.28416474,0.,-0.00288884,0.00400736,0.,0.00111492,-0.0
 0002831,0.,-0.00034693,0.00030200,0.,-0.13975303,0.28974410,0.,0.,0.00
 413442,0.,0.,0.00112718,0.,0.,-0.03373617,0.,0.,0.01091686,0.,0.,0.000
 47058,0.,0.,-0.00139628,0.,0.,0.02550946,-0.03022703,-0.01254823,0.,-0
 .04215472,-0.08261587,0.,-0.44150470,-0.04122535,0.,-0.08356857,0.0821
 3979,0.,-0.00502814,-0.00173073,0.,-0.00017663,-0.00349190,0.,-0.01021
 915,0.00059855,0.,0.61287894,-0.04590871,-0.10538547,0.,-0.00951005,-0
 .00649045,0.,-0.00453441,-0.10528207,0.,-0.02783149,-0.13926206,0.,-0.
 00254641,0.00193310,0.,0.00174295,-0.00686189,0.,0.02971438,0.00333959
 ,0.,0.05887374,0.35800925,0.,0.,0.01600307,0.,0.,0.02177693,0.,0.,-0.0
 6548277,0.,0.,-0.07074375,0.,0.,0.00532612,0.,0.,0.00601181,0.,0.,-0.0
 0702606,0.,0.,0.09413464\\0.00013551,-0.00000784,0.,0.00001960,-0.0000
 5797,0.,-0.00019610,0.00006927,0.,-0.00017707,0.00012847,0.,-0.0000109
 2,-0.00002815,0.,0.00002129,-0.00000614,0.,0.00007906,0.00005301,0.,0.
 00012863,-0.00015065,0.\\\@


 It takes a long time to grow an old friend.
                            -- John Leonard
 Job cpu time:       0 days  0 hours  3 minutes 20.7 seconds.
 Elapsed time:       0 days  0 hours  0 minutes 15.9 seconds.
 File lengths (MBytes):  RWF=     12 Int=      0 D2E=      0 Chk=      8 Scr=      1
 Normal termination of Gaussian 16 at Sat Aug 10 16:34:02 2019.
