 Entering Gaussian System, Link 0=/software/sse/easybuild/prefix/software/Gaussian/16.B.01-avx2-nsc1-bdist/g16/g16.orig
 Input=freq-lm.wrap
 Output=freq-lm.log
 Initial command:
 /software/sse/easybuild/prefix/software/Gaussian/16.B.01-avx2-nsc1-bdist/g16/l1.exe "/scratch/local/Gau-385016.inp" -scrdir="/scratch/local/"
 Default is to use a total of  16 processors:
                               16 via shared-memory
                                1 via Linda
 Entering Link 1 = /software/sse/easybuild/prefix/software/Gaussian/16.B.01-avx2-nsc1-bdist/g16/l1.exe PID=    385022.
  
 Copyright (c) 1988-2017, Gaussian, Inc.  All Rights Reserved.
  
 This is part of the Gaussian(R) 16 program.  It is based on
 the Gaussian(R) 09 system (copyright 2009, Gaussian, Inc.),
 the Gaussian(R) 03 system (copyright 2003, Gaussian, Inc.),
 the Gaussian(R) 98 system (copyright 1998, Gaussian, Inc.),
 the Gaussian(R) 94 system (copyright 1995, Gaussian, Inc.),
 the Gaussian 92(TM) system (copyright 1992, Gaussian, Inc.),
 the Gaussian 90(TM) system (copyright 1990, Gaussian, Inc.),
 the Gaussian 88(TM) system (copyright 1988, Gaussian, Inc.),
 the Gaussian 86(TM) system (copyright 1986, Carnegie Mellon
 University), and the Gaussian 82(TM) system (copyright 1983,
 Carnegie Mellon University). Gaussian is a federally registered
 trademark of Gaussian, Inc.
  
 This software contains proprietary and confidential information,
 including trade secrets, belonging to Gaussian, Inc.
  
 This software is provided under written license and may be
 used, copied, transmitted, or stored only in accord with that
 written license.
  
 The following legend is applicable only to US Government
 contracts under FAR:
  
                    RESTRICTED RIGHTS LEGEND
  
 Use, reproduction and disclosure by the US Government is
 subject to restrictions as set forth in subparagraphs (a)
 and (c) of the Commercial Computer Software - Restricted
 Rights clause in FAR 52.227-19.
  
 Gaussian, Inc.
 340 Quinnipiac St., Bldg. 40, Wallingford CT 06492
  
  
 ---------------------------------------------------------------
 Warning -- This program may not be used in any manner that
 competes with the business of Gaussian, Inc. or will provide
 assistance to any competitor of Gaussian, Inc.  The licensee
 of this program is prohibited from giving any competitor of
 Gaussian, Inc. access to this program.  By using this program,
 the user acknowledges that Gaussian, Inc. is engaged in the
 business of creating and licensing software in the field of
 computational chemistry and represents and warrants to the
 licensee that it is not a competitor of Gaussian, Inc. and that
 it will not use this program in any manner prohibited above.
 ---------------------------------------------------------------
  

 Cite this work as:
 Gaussian 16, Revision B.01,
 M. J. Frisch, G. W. Trucks, H. B. Schlegel, G. E. Scuseria, 
 M. A. Robb, J. R. Cheeseman, G. Scalmani, V. Barone, 
 G. A. Petersson, H. Nakatsuji, X. Li, M. Caricato, A. V. Marenich, 
 J. Bloino, B. G. Janesko, R. Gomperts, B. Mennucci, H. P. Hratchian, 
 J. V. Ortiz, A. F. Izmaylov, J. L. Sonnenberg, D. Williams-Young, 
 F. Ding, F. Lipparini, F. Egidi, J. Goings, B. Peng, A. Petrone, 
 T. Henderson, D. Ranasinghe, V. G. Zakrzewski, J. Gao, N. Rega, 
 G. Zheng, W. Liang, M. Hada, M. Ehara, K. Toyota, R. Fukuda, 
 J. Hasegawa, M. Ishida, T. Nakajima, Y. Honda, O. Kitao, H. Nakai, 
 T. Vreven, K. Throssell, J. A. Montgomery, Jr., J. E. Peralta, 
 F. Ogliaro, M. J. Bearpark, J. J. Heyd, E. N. Brothers, K. N. Kudin, 
 V. N. Staroverov, T. A. Keith, R. Kobayashi, J. Normand, 
 K. Raghavachari, A. P. Rendell, J. C. Burant, S. S. Iyengar, 
 J. Tomasi, M. Cossi, J. M. Millam, M. Klene, C. Adamo, R. Cammi, 
 J. W. Ochterski, R. L. Martin, K. Morokuma, O. Farkas, 
 J. B. Foresman, and D. J. Fox, Gaussian, Inc., Wallingford CT, 2016.
 
 ******************************************
 Gaussian 16:  ES64L-G16RevB.01 20-Dec-2017
                10-Aug-2019 
 ******************************************
 %chk=freq.chk
 ----------------------------------------------------------------------
 # freq(intmodes) iop(1/33=3) b3lyp/6-31g(d,p) geom=connectivity iop(7/
 75=-1)
 ----------------------------------------------------------------------
 1/10=4,18=20,30=1,33=3,38=1,57=2/1,3;
 2/9=110,12=2,17=6,18=5,40=1/2;
 3/5=1,6=6,7=101,11=2,25=1,30=1,71=2,74=-5,140=1/1,2,3;
 4//1;
 5/5=2,38=5,98=1/2;
 8/6=4,10=90,11=11/1;
 11/6=1,8=1,9=11,15=111,16=1/1,2,10;
 10/6=1/2;
 6/7=2,8=2,9=2,10=2,28=1/1;
 7/8=21,10=1,25=1,75=-1/1,2,3,16;
 1/10=4,18=20,30=1,33=3/3;
 99//99;
 ONIOM results not found on unit 2.
 ----
 name
 ----
 TstMul:  ICh=     0
 TstMul:  Mul=     1
 TstMul:  ICh=     0
 TstMul:  Mul=     1
 Symbolic Z-matrix:
 Charge =  0 Multiplicity = 1
 C                     0.        1.3962    0. 
 C                     1.20914   0.6981    0. 
 C                     1.20914  -0.6981    0. 
 C                     0.       -1.3962    0. 
 C                    -1.20914  -0.6981    0. 
 C                    -1.20914   0.6981    0. 
 H                     0.        2.48226   0. 
 H                     2.1497    1.24113   0. 
 H                     2.1497   -1.24113   0. 
 H                     0.       -2.48226   0. 
 H                    -2.1497   -1.24113   0. 
 H                    -2.1497    1.24113   0. 
 
 RdStrC is calling ZToCFu for IStruc=1 NZ=    12.
                                ZToCFu                                
 ---------------------------------------------------------------------
 Center     Atomic      Atomic             Coordinates (Angstroms)
 Number     Number       Type             X           Y           Z
 ---------------------------------------------------------------------
      1          6           0        0.000000    1.396200    0.000000
      2          6           0        1.209144    0.698100    0.000000
      3          6           0        1.209144   -0.698100    0.000000
      4          6           0        0.000000   -1.396200    0.000000
      5          6           0       -1.209144   -0.698100    0.000000
      6          6           0       -1.209144    0.698100    0.000000
      7          1           0        0.000000    2.482264    0.000000
      8          1           0        2.149704    1.241132    0.000000
      9          1           0        2.149704   -1.241132    0.000000
     10          1           0        0.000000   -2.482264    0.000000
     11          1           0       -2.149704   -1.241132    0.000000
     12          1           0       -2.149704    1.241132    0.000000
 ---------------------------------------------------------------------
 Connectivity in DoCon:
 I=     1 IAn=  6 IBond, RBType=     2  1.50     6  1.50     7  1.00
 I=     2 IAn=  6 IBond, RBType=     1  1.50     3  1.50     8  1.00
 I=     3 IAn=  6 IBond, RBType=     2  1.50     4  1.50     9  1.00
 I=     4 IAn=  6 IBond, RBType=     3  1.50     5  1.50    10  1.00
 I=     5 IAn=  6 IBond, RBType=     4  1.50     6  1.50    11  1.00
 I=     6 IAn=  6 IBond, RBType=     1  1.50     5  1.50    12  1.00
 I=     7 IAn=  1 IBond, RBType=     1  1.00
 I=     8 IAn=  1 IBond, RBType=     2  1.00
 I=     9 IAn=  1 IBond, RBType=     3  1.00
 I=    10 IAn=  1 IBond, RBType=     4  1.00
 I=    11 IAn=  1 IBond, RBType=     5  1.00
 I=    12 IAn=  1 IBond, RBType=     6  1.00
 After GenITR:
 ITRead=  0  0  0  0  0  0  0  0  0  0  0  0
 MicOpt= -1 -1 -1 -1 -1 -1 -1 -1 -1 -1 -1 -1
 List IsCon N=     12 M=      2:
 I=      1 Vals=      2      1 |      6      1 |      7      1 |
 I=      2 Vals=      1      1 |      3      1 |      8      1 |
 I=      3 Vals=      2      1 |      4      1 |      9      1 |
 I=      4 Vals=      3      1 |      5      1 |     10      1 |
 I=      5 Vals=      4      1 |      6      1 |     11      1 |
 I=      6 Vals=      1      1 |      5      1 |     12      1 |
 I=      7 Vals=      1      1 |
 I=      8 Vals=      2      1 |
 I=      9 Vals=      3      1 |
 I=     10 Vals=      4      1 |
 I=     11 Vals=      5      1 |
 I=     12 Vals=      6      1 |
 Coordinate R1 contains atom 1 which is already in QM block.
 Coordinate R1 contains atom 2 which is already in QM block.
 Coordinate R2 contains atom 1 which is already in QM block.
 Coordinate R2 contains atom 6 which is already in QM block.
 Coordinate R3 contains atom 1 which is already in QM block.
 Coordinate R3 contains atom 7 which is already in QM block.
 Coordinate R4 contains atom 2 which is already in QM block.
 Coordinate R4 contains atom 3 which is already in QM block.
 Coordinate R5 contains atom 2 which is already in QM block.
 Coordinate R5 contains atom 8 which is already in QM block.
 Coordinate R6 contains atom 3 which is already in QM block.
 Coordinate R6 contains atom 4 which is already in QM block.
 Coordinate R7 contains atom 3 which is already in QM block.
 Coordinate R7 contains atom 9 which is already in QM block.
 Coordinate R8 contains atom 4 which is already in QM block.
 Coordinate R8 contains atom 5 which is already in QM block.
 Coordinate R9 contains atom 4 which is already in QM block.
 Coordinate R9 contains atom 10 which is already in QM block.
 Coordinate R10 contains atom 5 which is already in QM block.
 Coordinate R10 contains atom 6 which is already in QM block.
 Coordinate R11 contains atom 5 which is already in QM block.
 Coordinate R11 contains atom 11 which is already in QM block.
 Coordinate R12 contains atom 6 which is already in QM block.
 Coordinate R12 contains atom 12 which is already in QM block.
 Coordinate A1 contains atom 2 which is already in QM block.
 Coordinate A1 contains atom 1 which is already in QM block.
 Coordinate A1 contains atom 1 which is already in QM block.
 Coordinate A2 contains atom 2 which is already in QM block.
 Coordinate A2 contains atom 1 which is already in QM block.
 Coordinate A2 contains atom 1 which is already in QM block.
 Coordinate A3 contains atom 6 which is already in QM block.
 Coordinate A3 contains atom 1 which is already in QM block.
 Coordinate A3 contains atom 1 which is already in QM block.
 Coordinate A4 contains atom 1 which is already in QM block.
 Coordinate A4 contains atom 2 which is already in QM block.
 Coordinate A4 contains atom 2 which is already in QM block.
 Coordinate A5 contains atom 1 which is already in QM block.
 Coordinate A5 contains atom 2 which is already in QM block.
 Coordinate A5 contains atom 2 which is already in QM block.
 Coordinate A6 contains atom 3 which is already in QM block.
 Coordinate A6 contains atom 2 which is already in QM block.
 Coordinate A6 contains atom 2 which is already in QM block.
 Coordinate A7 contains atom 2 which is already in QM block.
 Coordinate A7 contains atom 3 which is already in QM block.
 Coordinate A7 contains atom 3 which is already in QM block.
 Coordinate A8 contains atom 2 which is already in QM block.
 Coordinate A8 contains atom 3 which is already in QM block.
 Coordinate A8 contains atom 3 which is already in QM block.
 Coordinate A9 contains atom 4 which is already in QM block.
 Coordinate A9 contains atom 3 which is already in QM block.
 Coordinate A9 contains atom 3 which is already in QM block.
 Coordinate A10 contains atom 3 which is already in QM block.
 Coordinate A10 contains atom 4 which is already in QM block.
 Coordinate A10 contains atom 4 which is already in QM block.
 Coordinate A11 contains atom 3 which is already in QM block.
 Coordinate A11 contains atom 4 which is already in QM block.
 Coordinate A11 contains atom 4 which is already in QM block.
 Coordinate A12 contains atom 5 which is already in QM block.
 Coordinate A12 contains atom 4 which is already in QM block.
 Coordinate A12 contains atom 4 which is already in QM block.
 Coordinate A13 contains atom 4 which is already in QM block.
 Coordinate A13 contains atom 5 which is already in QM block.
 Coordinate A13 contains atom 5 which is already in QM block.
 Coordinate A14 contains atom 4 which is already in QM block.
 Coordinate A14 contains atom 5 which is already in QM block.
 Coordinate A14 contains atom 5 which is already in QM block.
 Coordinate A15 contains atom 6 which is already in QM block.
 Coordinate A15 contains atom 5 which is already in QM block.
 Coordinate A15 contains atom 5 which is already in QM block.
 Coordinate A16 contains atom 1 which is already in QM block.
 Coordinate A16 contains atom 6 which is already in QM block.
 Coordinate A16 contains atom 6 which is already in QM block.
 Coordinate A17 contains atom 1 which is already in QM block.
 Coordinate A17 contains atom 6 which is already in QM block.
 Coordinate A17 contains atom 6 which is already in QM block.
 Coordinate A18 contains atom 5 which is already in QM block.
 Coordinate A18 contains atom 6 which is already in QM block.
 Coordinate A18 contains atom 6 which is already in QM block.
 Coordinate D1 contains atom 6 which is already in QM block.
 Coordinate D1 contains atom 1 which is already in QM block.
 Coordinate D1 contains atom 2 which is already in QM block.
 Coordinate D1 contains atom 3 which is already in QM block.
 Coordinate D2 contains atom 6 which is already in QM block.
 Coordinate D2 contains atom 1 which is already in QM block.
 Coordinate D2 contains atom 2 which is already in QM block.
 Coordinate D2 contains atom 8 which is already in QM block.
 Coordinate D3 contains atom 7 which is already in QM block.
 Coordinate D3 contains atom 1 which is already in QM block.
 Coordinate D3 contains atom 2 which is already in QM block.
 Coordinate D3 contains atom 3 which is already in QM block.
 Coordinate D4 contains atom 7 which is already in QM block.
 Coordinate D4 contains atom 1 which is already in QM block.
 Coordinate D4 contains atom 2 which is already in QM block.
 Coordinate D4 contains atom 8 which is already in QM block.
 Coordinate D5 contains atom 2 which is already in QM block.
 Coordinate D5 contains atom 1 which is already in QM block.
 Coordinate D5 contains atom 6 which is already in QM block.
 Coordinate D5 contains atom 5 which is already in QM block.
 Coordinate D6 contains atom 2 which is already in QM block.
 Coordinate D6 contains atom 1 which is already in QM block.
 Coordinate D6 contains atom 6 which is already in QM block.
 Coordinate D6 contains atom 12 which is already in QM block.
 Coordinate D7 contains atom 7 which is already in QM block.
 Coordinate D7 contains atom 1 which is already in QM block.
 Coordinate D7 contains atom 6 which is already in QM block.
 Coordinate D7 contains atom 5 which is already in QM block.
 Coordinate D8 contains atom 7 which is already in QM block.
 Coordinate D8 contains atom 1 which is already in QM block.
 Coordinate D8 contains atom 6 which is already in QM block.
 Coordinate D8 contains atom 12 which is already in QM block.
 Coordinate D9 contains atom 1 which is already in QM block.
 Coordinate D9 contains atom 2 which is already in QM block.
 Coordinate D9 contains atom 3 which is already in QM block.
 Coordinate D9 contains atom 4 which is already in QM block.
 Coordinate D10 contains atom 1 which is already in QM block.
 Coordinate D10 contains atom 2 which is already in QM block.
 Coordinate D10 contains atom 3 which is already in QM block.
 Coordinate D10 contains atom 9 which is already in QM block.
 Coordinate D11 contains atom 8 which is already in QM block.
 Coordinate D11 contains atom 2 which is already in QM block.
 Coordinate D11 contains atom 3 which is already in QM block.
 Coordinate D11 contains atom 4 which is already in QM block.
 Coordinate D12 contains atom 8 which is already in QM block.
 Coordinate D12 contains atom 2 which is already in QM block.
 Coordinate D12 contains atom 3 which is already in QM block.
 Coordinate D12 contains atom 9 which is already in QM block.
 Coordinate D13 contains atom 2 which is already in QM block.
 Coordinate D13 contains atom 3 which is already in QM block.
 Coordinate D13 contains atom 4 which is already in QM block.
 Coordinate D13 contains atom 5 which is already in QM block.
 Coordinate D14 contains atom 2 which is already in QM block.
 Coordinate D14 contains atom 3 which is already in QM block.
 Coordinate D14 contains atom 4 which is already in QM block.
 Coordinate D14 contains atom 10 which is already in QM block.
 Coordinate D15 contains atom 9 which is already in QM block.
 Coordinate D15 contains atom 3 which is already in QM block.
 Coordinate D15 contains atom 4 which is already in QM block.
 Coordinate D15 contains atom 5 which is already in QM block.
 Coordinate D16 contains atom 9 which is already in QM block.
 Coordinate D16 contains atom 3 which is already in QM block.
 Coordinate D16 contains atom 4 which is already in QM block.
 Coordinate D16 contains atom 10 which is already in QM block.
 Coordinate D17 contains atom 3 which is already in QM block.
 Coordinate D17 contains atom 4 which is already in QM block.
 Coordinate D17 contains atom 5 which is already in QM block.
 Coordinate D17 contains atom 6 which is already in QM block.
 Coordinate D18 contains atom 3 which is already in QM block.
 Coordinate D18 contains atom 4 which is already in QM block.
 Coordinate D18 contains atom 5 which is already in QM block.
 Coordinate D18 contains atom 11 which is already in QM block.
 Coordinate D19 contains atom 10 which is already in QM block.
 Coordinate D19 contains atom 4 which is already in QM block.
 Coordinate D19 contains atom 5 which is already in QM block.
 Coordinate D19 contains atom 6 which is already in QM block.
 Coordinate D20 contains atom 10 which is already in QM block.
 Coordinate D20 contains atom 4 which is already in QM block.
 Coordinate D20 contains atom 5 which is already in QM block.
 Coordinate D20 contains atom 11 which is already in QM block.
 Coordinate D21 contains atom 4 which is already in QM block.
 Coordinate D21 contains atom 5 which is already in QM block.
 Coordinate D21 contains atom 6 which is already in QM block.
 Coordinate D21 contains atom 1 which is already in QM block.
 Coordinate D22 contains atom 4 which is already in QM block.
 Coordinate D22 contains atom 5 which is already in QM block.
 Coordinate D22 contains atom 6 which is already in QM block.
 Coordinate D22 contains atom 12 which is already in QM block.
 Coordinate D23 contains atom 11 which is already in QM block.
 Coordinate D23 contains atom 5 which is already in QM block.
 Coordinate D23 contains atom 6 which is already in QM block.
 Coordinate D23 contains atom 1 which is already in QM block.
 Coordinate D24 contains atom 11 which is already in QM block.
 Coordinate D24 contains atom 5 which is already in QM block.
 Coordinate D24 contains atom 6 which is already in QM block.
 Coordinate D24 contains atom 12 which is already in QM block.
 Saved connectivity
 I=     1 IAn=  6 IBond, RBType=     2  1.50     6  1.50     7  1.00
 I=     2 IAn=  6 IBond, RBType=     1  1.50     3  1.50     8  1.00
 I=     3 IAn=  6 IBond, RBType=     2  1.50     4  1.50     9  1.00
 I=     4 IAn=  6 IBond, RBType=     3  1.50     5  1.50    10  1.00
 I=     5 IAn=  6 IBond, RBType=     4  1.50     6  1.50    11  1.00
 I=     6 IAn=  6 IBond, RBType=     1  1.50     5  1.50    12  1.00
 I=     7 IAn=  1 IBond, RBType=     1  1.00
 I=     8 IAn=  1 IBond, RBType=     2  1.00
 I=     9 IAn=  1 IBond, RBType=     3  1.00
 I=    10 IAn=  1 IBond, RBType=     4  1.00
 I=    11 IAn=  1 IBond, RBType=     5  1.00
 I=    12 IAn=  1 IBond, RBType=     6  1.00
 ITRead=  0  0  0  0  0  0  0  0  0  0  0  0
 MicOpt= -1 -1 -1 -1 -1 -1 -1 -1 -1 -1 -1 -1
 NAtoms=     12 NQM=       12 NQMF=       0 NMMI=      0 NMMIF=      0
                NMic=       0 NMicF=      0.
 No MM parameters found.
 Leave Link  101 at Sat Aug 10 16:34:05 2019, MaxMem=  4294967296 cpu:               5.3 elap:               0.4

 GradGradGradGradGradGradGradGradGradGradGradGradGradGradGradGradGradGrad
 Berny optimization.
 GetPCM: File not found, return IValue=0.
 Optmz: redundant internal coordinate code flag= 1
 Initialization pass.
                           ----------------------------
                           !    Initial Parameters    !
                           ! (Angstroms and Degrees)  !
 --------------------------                            --------------------------
 ! Name  Definition              Value          Derivative Info.                !
 --------------------------------------------------------------------------------
 ! R1    R(1,2)                  1.3962         calculate D2E/DX2 analytically  !
 ! R2    R(1,6)                  1.3962         calculate D2E/DX2 analytically  !
 ! R3    R(1,7)                  1.0861         calculate D2E/DX2 analytically  !
 ! R4    R(2,3)                  1.3962         calculate D2E/DX2 analytically  !
 ! R5    R(2,8)                  1.0861         calculate D2E/DX2 analytically  !
 ! R6    R(3,4)                  1.3962         calculate D2E/DX2 analytically  !
 ! R7    R(3,9)                  1.0861         calculate D2E/DX2 analytically  !
 ! R8    R(4,5)                  1.3962         calculate D2E/DX2 analytically  !
 ! R9    R(4,10)                 1.0861         calculate D2E/DX2 analytically  !
 ! R10   R(5,6)                  1.3962         calculate D2E/DX2 analytically  !
 ! R11   R(5,11)                 1.0861         calculate D2E/DX2 analytically  !
 ! R12   R(6,12)                 1.0861         calculate D2E/DX2 analytically  !
 ! A1    A(2,1,6)              120.0            calculate D2E/DX2 analytically  !
 ! A2    A(2,1,7)              120.0            calculate D2E/DX2 analytically  !
 ! A3    A(6,1,7)              120.0            calculate D2E/DX2 analytically  !
 ! A4    A(1,2,3)              120.0            calculate D2E/DX2 analytically  !
 ! A5    A(1,2,8)              120.0            calculate D2E/DX2 analytically  !
 ! A6    A(3,2,8)              120.0            calculate D2E/DX2 analytically  !
 ! A7    A(2,3,4)              120.0            calculate D2E/DX2 analytically  !
 ! A8    A(2,3,9)              120.0            calculate D2E/DX2 analytically  !
 ! A9    A(4,3,9)              120.0            calculate D2E/DX2 analytically  !
 ! A10   A(3,4,5)              120.0            calculate D2E/DX2 analytically  !
 ! A11   A(3,4,10)             120.0            calculate D2E/DX2 analytically  !
 ! A12   A(5,4,10)             120.0            calculate D2E/DX2 analytically  !
 ! A13   A(4,5,6)              120.0            calculate D2E/DX2 analytically  !
 ! A14   A(4,5,11)             120.0            calculate D2E/DX2 analytically  !
 ! A15   A(6,5,11)             120.0            calculate D2E/DX2 analytically  !
 ! A16   A(1,6,5)              120.0            calculate D2E/DX2 analytically  !
 ! A17   A(1,6,12)             120.0            calculate D2E/DX2 analytically  !
 ! A18   A(5,6,12)             120.0            calculate D2E/DX2 analytically  !
 ! D1    D(6,1,2,3)              0.0            calculate D2E/DX2 analytically  !
 ! D2    D(6,1,2,8)            180.0            calculate D2E/DX2 analytically  !
 ! D3    D(7,1,2,3)            180.0            calculate D2E/DX2 analytically  !
 ! D4    D(7,1,2,8)              0.0            calculate D2E/DX2 analytically  !
 ! D5    D(2,1,6,5)              0.0            calculate D2E/DX2 analytically  !
 ! D6    D(2,1,6,12)           180.0            calculate D2E/DX2 analytically  !
 ! D7    D(7,1,6,5)            180.0            calculate D2E/DX2 analytically  !
 ! D8    D(7,1,6,12)             0.0            calculate D2E/DX2 analytically  !
 ! D9    D(1,2,3,4)              0.0            calculate D2E/DX2 analytically  !
 ! D10   D(1,2,3,9)            180.0            calculate D2E/DX2 analytically  !
 ! D11   D(8,2,3,4)            180.0            calculate D2E/DX2 analytically  !
 ! D12   D(8,2,3,9)              0.0            calculate D2E/DX2 analytically  !
 ! D13   D(2,3,4,5)              0.0            calculate D2E/DX2 analytically  !
 ! D14   D(2,3,4,10)           180.0            calculate D2E/DX2 analytically  !
 ! D15   D(9,3,4,5)            180.0            calculate D2E/DX2 analytically  !
 ! D16   D(9,3,4,10)             0.0            calculate D2E/DX2 analytically  !
 ! D17   D(3,4,5,6)              0.0            calculate D2E/DX2 analytically  !
 ! D18   D(3,4,5,11)           180.0            calculate D2E/DX2 analytically  !
 ! D19   D(10,4,5,6)           180.0            calculate D2E/DX2 analytically  !
 ! D20   D(10,4,5,11)            0.0            calculate D2E/DX2 analytically  !
 ! D21   D(4,5,6,1)              0.0            calculate D2E/DX2 analytically  !
 ! D22   D(4,5,6,12)           180.0            calculate D2E/DX2 analytically  !
 ! D23   D(11,5,6,1)           180.0            calculate D2E/DX2 analytically  !
 ! D24   D(11,5,6,12)            0.0            calculate D2E/DX2 analytically  !
 --------------------------------------------------------------------------------
 Maximum allowed force set to 1.00D+20.
 Trust Radius=3.00D-01 FncErr=1.00D-07 GrdErr=1.00D-07 EigMax=2.50D+02 EigMin=1.00D-04
 Number of steps in this run=      2 maximum allowed number of steps=      2.
 GradGradGradGradGradGradGradGradGradGradGradGradGradGradGradGradGradGrad

 Leave Link  103 at Sat Aug 10 16:34:05 2019, MaxMem=  4294967296 cpu:               0.6 elap:               0.1
                          Input orientation:                          
 ---------------------------------------------------------------------
 Center     Atomic      Atomic             Coordinates (Angstroms)
 Number     Number       Type             X           Y           Z
 ---------------------------------------------------------------------
      1          6           0        0.000000    1.396200    0.000000
      2          6           0        1.209144    0.698100    0.000000
      3          6           0        1.209144   -0.698100    0.000000
      4          6           0        0.000000   -1.396200    0.000000
      5          6           0       -1.209144   -0.698100    0.000000
      6          6           0       -1.209144    0.698100    0.000000
      7          1           0        0.000000    2.482264    0.000000
      8          1           0        2.149704    1.241132    0.000000
      9          1           0        2.149704   -1.241132    0.000000
     10          1           0        0.000000   -2.482264    0.000000
     11          1           0       -2.149704   -1.241132    0.000000
     12          1           0       -2.149704    1.241132    0.000000
 ---------------------------------------------------------------------
                    Distance matrix (angstroms):
                    1          2          3          4          5
     1  C    0.000000
     2  C    1.396199   0.000000
     3  C    2.418289   1.396200   0.000000
     4  C    2.792400   2.418289   1.396199   0.000000
     5  C    2.418289   2.792399   2.418288   1.396199   0.000000
     6  C    1.396199   2.418288   2.792399   2.418289   1.396200
     7  H    1.086064   2.155289   3.402462   3.878464   3.402462
     8  H    2.155290   1.086065   2.155290   3.402462   3.878464
     9  H    3.402462   2.155290   1.086065   2.155290   3.402461
    10  H    3.878464   3.402462   2.155289   1.086064   2.155289
    11  H    3.402462   3.878464   3.402461   2.155290   1.086065
    12  H    2.155290   3.402461   3.878464   3.402462   2.155290
                    6          7          8          9         10
     6  C    0.000000
     7  H    2.155289   0.000000
     8  H    3.402461   2.482264   0.000000
     9  H    3.878464   4.299408   2.482264   0.000000
    10  H    3.402462   4.964528   4.299408   2.482264   0.000000
    11  H    2.155290   4.299408   4.964529   4.299408   2.482264
    12  H    1.086065   2.482264   4.299408   4.964529   4.299408
                   11         12
    11  H    0.000000
    12  H    2.482264   0.000000
 Stoichiometry    C6H6
 Framework group  D6H[3C2'(HC.CH)]
 Deg. of freedom     2
 Full point group                 D6H     NOp  24
 Largest Abelian subgroup         D2H     NOp   8
 Largest concise Abelian subgroup D2      NOp   4
                         Standard orientation:                         
 ---------------------------------------------------------------------
 Center     Atomic      Atomic             Coordinates (Angstroms)
 Number     Number       Type             X           Y           Z
 ---------------------------------------------------------------------
      1          6           0       -0.000000    1.396200    0.000000
      2          6           0        1.209145    0.698100    0.000000
      3          6           0        1.209145   -0.698100    0.000000
      4          6           0        0.000000   -1.396200    0.000000
      5          6           0       -1.209145   -0.698100    0.000000
      6          6           0       -1.209145    0.698100    0.000000
      7          1           0       -0.000000    2.482264    0.000000
      8          1           0        2.149704    1.241132    0.000000
      9          1           0        2.149704   -1.241132    0.000000
     10          1           0        0.000000   -2.482264    0.000000
     11          1           0       -2.149704   -1.241132    0.000000
     12          1           0       -2.149704    1.241132    0.000000
 ---------------------------------------------------------------------
 Rotational constants (GHZ):           5.6907546           5.6907546           2.8453773
 Standard basis: 6-31G(d,p) (6D, 7F)
 There are    26 symmetry adapted cartesian basis functions of AG  symmetry.
 There are    19 symmetry adapted cartesian basis functions of B1G symmetry.
 There are     6 symmetry adapted cartesian basis functions of B2G symmetry.
 There are     9 symmetry adapted cartesian basis functions of B3G symmetry.
 There are     6 symmetry adapted cartesian basis functions of AU  symmetry.
 There are     9 symmetry adapted cartesian basis functions of B1U symmetry.
 There are    26 symmetry adapted cartesian basis functions of B2U symmetry.
 There are    19 symmetry adapted cartesian basis functions of B3U symmetry.
 There are    26 symmetry adapted basis functions of AG  symmetry.
 There are    19 symmetry adapted basis functions of B1G symmetry.
 There are     6 symmetry adapted basis functions of B2G symmetry.
 There are     9 symmetry adapted basis functions of B3G symmetry.
 There are     6 symmetry adapted basis functions of AU  symmetry.
 There are     9 symmetry adapted basis functions of B1U symmetry.
 There are    26 symmetry adapted basis functions of B2U symmetry.
 There are    19 symmetry adapted basis functions of B3U symmetry.
   120 basis functions,   210 primitive gaussians,   120 cartesian basis functions
    21 alpha electrons       21 beta electrons
       nuclear repulsion energy       203.2648674201 Hartrees.
 NAtoms=   12 NActive=   12 NUniq=    2 SFac= 4.00D+00 NAtFMM=   60 NAOKFM=F Big=F
 Integral buffers will be    131072 words long.
 Raffenetti 2 integral format.
 Two-electron integral symmetry is turned on.
 One-electron integrals computed using PRISM.
 NBasis=   120 RedAO= T EigKep=  5.18D-04  NBF=    26    19     6     9     6     9    26    19
 NBsUse=   120 1.00D-06 EigRej= -1.00D+00 NBFU=    26    19     6     9     6     9    26    19
 ExpMin= 1.61D-01 ExpMax= 3.05D+03 ExpMxC= 4.57D+02 IAcc=3 IRadAn=         5 AccDes= 0.00D+00
 Harris functional with IExCor=  402 and IRadAn=       5 diagonalized for initial guess.
 HarFok:  IExCor=  402 AccDes= 0.00D+00 IRadAn=         5 IDoV= 1 UseB2=F ITyADJ=14
 ICtDFT=  3500011 ScaDFX=  1.000000  1.000000  1.000000  1.000000
 FoFCou: FMM=F IPFlag=           0 FMFlag=      100000 FMFlg1=           0
         NFxFlg=           0 DoJE=T BraDBF=F KetDBF=T FulRan=T
         wScrn=  0.000000 ICntrl=       500 IOpCl=  0 I1Cent=   200000004 NGrid=           0
         NMat0=    1 NMatS0=      1 NMatT0=    0 NMatD0=    1 NMtDS0=    0 NMtDT0=    0
 Petite list used in FoFCou.
 Initial guess orbital symmetries:
       Occupied  (A1G) (E1U) (E1U) (E2G) (E2G) (B1U) (A1G) (E1U)
                 (E1U) (E2G) (E2G) (A1G) (B2U) (B1U) (E1U) (E1U)
                 (A2U) (E2G) (E2G) (E1G) (E1G)
       Virtual   (E2U) (E2U) (B2G) (A1G) (E1U) (E1U) (E2G) (E2G)
                 (B1U) (E2G) (E2G) (E1U) (E1U) (B2U) (B1U) (A2G)
                 (A2U) (A1G) (E2G) (E2G) (A1G) (E1G) (E1G) (E1U)
                 (E1U) (E2U) (E2U) (B2G) (B1U) (E2G) (E2G) (E1U)
                 (E1U) (A1G) (E1U) (E1U) (A2G) (E2G) (E2G) (E1U)
                 (E1U) (B1U) (B1G) (A2U) (E1G) (E1G) (E2U) (E2U)
                 (E2G) (E2G) (B2U) (A1G) (A1G) (E1U) (E1U) (B1U)
                 (E2G) (E2G) (E2U) (E2U) (B2G) (E1U) (E1U) (E1G)
                 (E1G) (E2G) (E2G) (A2U) (E1G) (E1G) (B2U) (E1U)
                 (E1U) (E2G) (E2G) (B1U) (A2G) (E2U) (E2U) (A1U)
                 (B2G) (E2G) (E2G) (E1U) (E1U) (B1U) (A1G) (E1U)
                 (E1U) (A2G) (E2G) (E2G) (B1U) (A1G) (E1U) (E1U)
                 (E2G) (E2G) (B1U)
 The electronic state of the initial guess is 1-A1G.
 Keep R1 ints in memory in symmetry-blocked form, NReq=41536802.
 Requested convergence on RMS density matrix=1.00D-08 within 128 cycles.
 Requested convergence on MAX density matrix=1.00D-06.
 Requested convergence on             energy=1.00D-06.
 No special actions if energy rises.
 Integral accuracy reduced to 1.0D-05 until final iterations.
 Initial convergence to 1.0D-05 achieved.  Increase integral accuracy.
 SCF Done:  E(RB3LYP) =  -232.258201583     A.U. after    9 cycles
            NFock=  9  Conv=0.55D-08     -V/T= 2.0101
 DoSCS=F DFT=T ScalE2(SS,OS)=  1.000000  1.000000
 Range of M.O.s used for correlation:     1   120
 NBasis=   120 NAE=    21 NBE=    21 NFC=     0 NFV=     0
 NROrb=    120 NOA=    21 NOB=    21 NVA=    99 NVB=    99

 **** Warning!!: The largest alpha MO coefficient is  0.10774356D+02

 Symmetrizing basis deriv contribution to polar:
 IMax=3 JMax=2 DiffMx= 0.00D+00
 G2DrvN: will do    13 centers at a time, making    1 passes.
 Calling FoFCou, ICntrl=  3107 FMM=F I1Cent=   0 AccDes= 0.00D+00.
 End of G2Drv F.D. properties file   721 does not exist.
 End of G2Drv F.D. properties file   722 does not exist.
 End of G2Drv F.D. properties file   788 does not exist.
          IDoAtm=111111111111
          Differentiating once with respect to electric field.
                with respect to dipole field.
          Differentiating once with respect to nuclear coordinates.
 Keep R1 ints in memory in symmetry-blocked form, NReq=41492935.
          There are     9 degrees of freedom in the 1st order CPHF.  IDoFFX=4 NUNeed=     9.
      9 vectors produced by pass  0 Test12= 2.31D-14 1.11D-08 XBig12= 8.68D+01 5.70D+00.
 AX will form     9 AO Fock derivatives at one time.
      9 vectors produced by pass  1 Test12= 2.31D-14 1.11D-08 XBig12= 3.13D+01 1.97D+00.
      9 vectors produced by pass  2 Test12= 2.31D-14 1.11D-08 XBig12= 1.60D+00 3.19D-01.
      9 vectors produced by pass  3 Test12= 2.31D-14 1.11D-08 XBig12= 2.93D-02 3.91D-02.
      9 vectors produced by pass  4 Test12= 2.31D-14 1.11D-08 XBig12= 2.52D-04 4.67D-03.
      9 vectors produced by pass  5 Test12= 2.31D-14 1.11D-08 XBig12= 1.78D-06 3.69D-04.
      8 vectors produced by pass  6 Test12= 2.31D-14 1.11D-08 XBig12= 8.04D-09 2.13D-05.
      5 vectors produced by pass  7 Test12= 2.31D-14 1.11D-08 XBig12= 4.01D-11 1.76D-06.
      3 vectors produced by pass  8 Test12= 2.31D-14 1.11D-08 XBig12= 3.45D-13 1.18D-07.
 InvSVY:  IOpt=1 It=  1 EMax= 1.04D-15
 Solved reduced A of dimension    70 with     9 vectors.
 Isotropic polarizability for W=    0.000000       54.98 Bohr**3.
 End of Minotr F.D. properties file   721 does not exist.
 End of Minotr F.D. properties file   722 does not exist.
 End of Minotr F.D. properties file   788 does not exist.

 **********************************************************************

            Population analysis using the SCF Density.

 **********************************************************************

 Orbital symmetries:
       Occupied  (A1G) (E1U) (E1U) (E2G) (E2G) (B1U) (A1G) (E1U)
                 (E1U) (E2G) (E2G) (A1G) (B1U) (B2U) (E1U) (E1U)
                 (A2U) (E2G) (E2G) (E1G) (E1G)
       Virtual   (E2U) (E2U) (A1G) (E1U) (E1U) (B2G) (E2G) (E2G)
                 (B1U) (E2G) (E2G) (E1U) (E1U) (B2U) (A2U) (B1U)
                 (A1G) (A2G) (A1G) (E2G) (E2G) (E1G) (E1G) (E1U)
                 (E1U) (E2U) (E2U) (B2G) (E2G) (E2G) (B1U) (E1U)
                 (E1U) (A1G) (E1U) (E1U) (A2G) (E2G) (E2G) (E1U)
                 (E1U) (B1U) (B1G) (A2U) (E1G) (E1G) (E2U) (E2U)
                 (E2G) (E2G) (A1G) (B2U) (A1G) (B1U) (E1U) (E1U)
                 (E2G) (E2G) (E2U) (E2U) (B2G) (E1U) (E1U) (E1G)
                 (E1G) (E2G) (E2G) (A2U) (B2U) (E1G) (E1G) (E1U)
                 (E1U) (E2G) (E2G) (B1U) (A2G) (E2U) (E2U) (A1U)
                 (B2G) (E2G) (E2G) (E1U) (E1U) (B1U) (A1G) (E1U)
                 (E1U) (A2G) (E2G) (E2G) (B1U) (A1G) (E1U) (E1U)
                 (E2G) (E2G) (B1U)
 The electronic state is 1-A1G.
 Alpha  occ. eigenvalues --  -10.18793 -10.18766 -10.18766 -10.18711 -10.18711
 Alpha  occ. eigenvalues --  -10.18684  -0.84677  -0.74005  -0.74005  -0.59740
 Alpha  occ. eigenvalues --   -0.59740  -0.51795  -0.45822  -0.43854  -0.41656
 Alpha  occ. eigenvalues --   -0.41656  -0.35998  -0.33961  -0.33961  -0.24691
 Alpha  occ. eigenvalues --   -0.24691
 Alpha virt. eigenvalues --    0.00267   0.00267   0.09117   0.14517   0.14517
 Alpha virt. eigenvalues --    0.16190   0.18187   0.18187   0.19074   0.30073
 Alpha virt. eigenvalues --    0.30073   0.31821   0.31821   0.46726   0.52701
 Alpha virt. eigenvalues --    0.54833   0.55040   0.56114   0.59184   0.60125
 Alpha virt. eigenvalues --    0.60125   0.60153   0.60153   0.62467   0.62467
 Alpha virt. eigenvalues --    0.66713   0.66713   0.74251   0.81990   0.81990
 Alpha virt. eigenvalues --    0.82632   0.84428   0.84428   0.92466   0.93700
 Alpha virt. eigenvalues --    0.93700   0.95845   1.07892   1.07892   1.12962
 Alpha virt. eigenvalues --    1.12962   1.20179   1.26174   1.30038   1.40666
 Alpha virt. eigenvalues --    1.40666   1.42837   1.42837   1.43163   1.43163
 Alpha virt. eigenvalues --    1.75003   1.75784   1.81489   1.88214   1.92377
 Alpha virt. eigenvalues --    1.92377   1.96914   1.96914   1.97803   1.97803
 Alpha virt. eigenvalues --    2.02383   2.07417   2.07417   2.29654   2.29654
 Alpha virt. eigenvalues --    2.35669   2.35669   2.36699   2.41103   2.41496
 Alpha virt. eigenvalues --    2.41496   2.44331   2.44331   2.49464   2.49464
 Alpha virt. eigenvalues --    2.52597   2.59337   2.60038   2.60038   2.65788
 Alpha virt. eigenvalues --    2.77196   2.81149   2.81149   3.04931   3.04931
 Alpha virt. eigenvalues --    3.19265   3.23528   3.24815   3.24815   3.39478
 Alpha virt. eigenvalues --    3.50924   3.50924   3.95290   4.13047   4.16187
 Alpha virt. eigenvalues --    4.16187   4.43905   4.43905   4.83092
          Condensed to atoms (all electrons):
               1          2          3          4          5          6
     1  C    4.803174   0.549528  -0.035802  -0.040521  -0.035802   0.549528
     2  C    0.549528   4.803174   0.549528  -0.035802  -0.040521  -0.035802
     3  C   -0.035802   0.549528   4.803174   0.549528  -0.035802  -0.040521
     4  C   -0.040521  -0.035802   0.549528   4.803174   0.549528  -0.035802
     5  C   -0.035802  -0.040521  -0.035802   0.549528   4.803174   0.549528
     6  C    0.549528  -0.035802  -0.040521  -0.035802   0.549528   4.803174
     7  H    0.368560  -0.042251   0.004829   0.000601   0.004829  -0.042251
     8  H   -0.042251   0.368560  -0.042251   0.004829   0.000601   0.004829
     9  H    0.004829  -0.042251   0.368560  -0.042251   0.004829   0.000601
    10  H    0.000601   0.004829  -0.042251   0.368560  -0.042251   0.004829
    11  H    0.004829   0.000601   0.004829  -0.042251   0.368560  -0.042251
    12  H   -0.042251   0.004829   0.000601   0.004829  -0.042251   0.368560
               7          8          9         10         11         12
     1  C    0.368560  -0.042251   0.004829   0.000601   0.004829  -0.042251
     2  C   -0.042251   0.368560  -0.042251   0.004829   0.000601   0.004829
     3  C    0.004829  -0.042251   0.368560  -0.042251   0.004829   0.000601
     4  C    0.000601   0.004829  -0.042251   0.368560  -0.042251   0.004829
     5  C    0.004829   0.000601   0.004829  -0.042251   0.368560  -0.042251
     6  C   -0.042251   0.004829   0.000601   0.004829  -0.042251   0.368560
     7  H    0.634534  -0.006454  -0.000189   0.000015  -0.000189  -0.006454
     8  H   -0.006454   0.634534  -0.006454  -0.000189   0.000015  -0.000189
     9  H   -0.000189  -0.006454   0.634534  -0.006454  -0.000189   0.000015
    10  H    0.000015  -0.000189  -0.006454   0.634534  -0.006454  -0.000189
    11  H   -0.000189   0.000015  -0.000189  -0.006454   0.634534  -0.006454
    12  H   -0.006454  -0.000189   0.000015  -0.000189  -0.006454   0.634534
 Mulliken charges:
               1
     1  C   -0.084421
     2  C   -0.084421
     3  C   -0.084421
     4  C   -0.084421
     5  C   -0.084421
     6  C   -0.084421
     7  H    0.084421
     8  H    0.084421
     9  H    0.084421
    10  H    0.084421
    11  H    0.084421
    12  H    0.084421
 Sum of Mulliken charges =  -0.00000
 Mulliken charges with hydrogens summed into heavy atoms:
               1
     1  C   -0.000000
     2  C   -0.000000
     3  C   -0.000000
     4  C   -0.000000
     5  C   -0.000000
     6  C   -0.000000
 APT charges:
               1
     1  C   -0.015244
     2  C   -0.015256
     3  C   -0.015256
     4  C   -0.015244
     5  C   -0.015256
     6  C   -0.015256
     7  H    0.015258
     8  H    0.015260
     9  H    0.015260
    10  H    0.015258
    11  H    0.015260
    12  H    0.015260
 Sum of APT charges =   0.00004
 APT charges with hydrogens summed into heavy atoms:
               1
     1  C    0.000014
     2  C    0.000004
     3  C    0.000004
     4  C    0.000014
     5  C    0.000004
     6  C    0.000004
 Electronic spatial extent (au):  <R**2>=            458.0752
 Charge=             -0.0000 electrons
 Dipole moment (field-independent basis, Debye):
    X=              0.0000    Y=             -0.0000    Z=              0.0000  Tot=              0.0000
 Quadrupole moment (field-independent basis, Debye-Ang):
   XX=            -31.4726   YY=            -31.4726   ZZ=            -38.5314
   XY=              0.0000   XZ=             -0.0000   YZ=             -0.0000
 Traceless Quadrupole moment (field-independent basis, Debye-Ang):
   XX=              2.3529   YY=              2.3529   ZZ=             -4.7059
   XY=              0.0000   XZ=             -0.0000   YZ=             -0.0000
 Octapole moment (field-independent basis, Debye-Ang**2):
  XXX=              0.0000  YYY=             -0.0000  ZZZ=             -0.0000  XYY=              0.0000
  XXY=              0.0000  XXZ=             -0.0000  XZZ=              0.0000  YZZ=              0.0000
  YYZ=              0.0000  XYZ=             -0.0000
 Hexadecapole moment (field-independent basis, Debye-Ang**3):
 XXXX=           -270.6777 YYYY=           -270.6777 ZZZZ=            -39.8989 XXXY=              0.0000
 XXXZ=             -0.0000 YYYX=              0.0000 YYYZ=             -0.0000 ZZZX=             -0.0000
 ZZZY=             -0.0000 XXYY=            -90.2259 XXZZ=            -60.4099 YYZZ=            -60.4099
 XXYZ=             -0.0000 YYXZ=             -0.0000 ZZXY=              0.0000
 N-N= 2.032648674201D+02 E-N=-9.439012703917D+02  KE= 2.299465808485D+02
 Symmetry AG   KE= 7.407549074896D+01
 Symmetry B1G  KE= 3.748031065836D+01
 Symmetry B2G  KE= 2.235114465539D+00
 Symmetry B3G  KE= 2.235114465539D+00
 Symmetry AU   KE= 1.123885307152D-16
 Symmetry B1U  KE= 1.864666181838D+00
 Symmetry B2U  KE= 7.177693649312D+01
 Symmetry B3U  KE= 4.027894783516D+01
  Exact polarizability:  71.763   0.000  71.764  -0.000  -0.000  21.423
 Approx polarizability: 119.406  -0.000 119.406  -0.000   0.000  32.010
 Calling FoFJK, ICntrl=    100127 FMM=F ISym2X=1 I1Cent= 0 IOpClX= 0 NMat=1 NMatS=1 NMatT=0.
 Full mass-weighted force constant matrix:
 Low frequencies ---  -17.2061  -14.9379  -14.9379   -0.0056   -0.0055   -0.0008
 Low frequencies ---  414.1053  414.1053  620.9426
 Diagonal vibrational polarizability:
        0.2794684       0.2794896       4.1575257
 Harmonic frequencies (cm**-1), IR intensities (KM/Mole), Raman scattering
 activities (A**4/AMU), depolarization ratios for plane and unpolarized
 incident light, reduced masses (AMU), force constants (mDyne/A),
 and normal coordinates:
                      1                      2                      3
                     E2U                    E2U                    E2G
 Frequencies --    414.1053               414.1053               620.9426
 Red. masses --      2.9405                 2.9405                 6.0702
 Frc consts  --      0.2971                 0.2971                 1.3790
 IR Inten    --      0.0000                 0.0000                 0.0000
  Atom  AN      X      Y      Z        X      Y      Z        X      Y      Z
     1   6     0.00  -0.00  -0.13    -0.00  -0.00  -0.21     0.06   0.33  -0.00
     2   6     0.00   0.00   0.24     0.00  -0.00  -0.01    -0.12   0.11   0.00
     3   6    -0.00   0.00  -0.11     0.00  -0.00   0.21    -0.29   0.06   0.00
     4   6    -0.00   0.00  -0.13     0.00   0.00  -0.21    -0.06  -0.33  -0.00
     5   6    -0.00  -0.00   0.24    -0.00   0.00  -0.01     0.12  -0.11   0.00
     6   6     0.00  -0.00  -0.11    -0.00   0.00   0.21     0.29  -0.06   0.00
     7   1    -0.00  -0.00  -0.28     0.00  -0.00  -0.45    -0.08   0.33  -0.00
     8   1     0.00   0.00   0.52    -0.00   0.00  -0.02     0.07  -0.22   0.00
     9   1    -0.00  -0.00  -0.25     0.00  -0.00   0.46    -0.18   0.26   0.00
    10   1     0.00   0.00  -0.28    -0.00   0.00  -0.45     0.08  -0.33  -0.00
    11   1    -0.00  -0.00   0.52     0.00  -0.00  -0.02    -0.07   0.22   0.00
    12   1     0.00   0.00  -0.25    -0.00   0.00   0.46     0.18  -0.26   0.00
                      4                      5                      6
                     E2G                    A2U                    B2G
 Frequencies --    620.9426               693.2462               718.2882
 Red. masses --      6.0702                 1.0848                 3.8712
 Frc consts  --      1.3790                 0.3072                 1.1768
 IR Inten    --      0.0000                74.2466                 0.0000
  Atom  AN      X      Y      Z        X      Y      Z        X      Y      Z
     1   6     0.14  -0.14   0.00    -0.00   0.00  -0.03     0.00   0.00   0.21
     2   6     0.30   0.20  -0.00     0.00   0.00  -0.03    -0.00  -0.00  -0.21
     3   6    -0.13   0.22   0.00     0.00  -0.00  -0.03     0.00  -0.00   0.21
     4   6    -0.14   0.14   0.00     0.00  -0.00  -0.03    -0.00   0.00  -0.21
     5   6    -0.30  -0.20  -0.00    -0.00  -0.00  -0.03    -0.00  -0.00   0.21
     6   6     0.13  -0.22   0.00    -0.00   0.00  -0.03     0.00  -0.00  -0.21
     7   1    -0.21  -0.13   0.00     0.00   0.00   0.41     0.00   0.00   0.35
     8   1     0.32   0.15  -0.00     0.00   0.00   0.41    -0.00  -0.00  -0.35
     9   1    -0.28  -0.04   0.00     0.00  -0.00   0.41     0.00  -0.00   0.35
    10   1     0.21   0.13   0.00    -0.00  -0.00   0.41     0.00   0.00  -0.35
    11   1    -0.32  -0.15  -0.00     0.00  -0.00   0.41    -0.00  -0.00   0.35
    12   1     0.28   0.04   0.00    -0.00   0.00   0.41     0.00  -0.00  -0.35
                      7                      8                      9
                     E1G                    E1G                    E2U
 Frequencies --    864.2786               864.2786               973.8296
 Red. masses --      1.2476                 1.2476                 1.3596
 Frc consts  --      0.5491                 0.5491                 0.7597
 IR Inten    --      0.0000                 0.0000                 0.0000
  Atom  AN      X      Y      Z        X      Y      Z        X      Y      Z
     1   6     0.00  -0.00  -0.04    -0.00  -0.00  -0.07     0.00  -0.00   0.05
     2   6    -0.00  -0.00  -0.09    -0.00   0.00  -0.00     0.00   0.00  -0.10
     3   6    -0.00   0.00  -0.04     0.00  -0.00   0.07    -0.00   0.00   0.05
     4   6     0.00  -0.00   0.04    -0.00  -0.00   0.07    -0.00   0.00   0.05
     5   6    -0.00  -0.00   0.09    -0.00   0.00   0.00    -0.00  -0.00  -0.10
     6   6     0.00   0.00   0.04     0.00  -0.00  -0.07    -0.00  -0.00   0.05
     7   1     0.00  -0.00   0.28    -0.00  -0.00   0.50     0.00  -0.00  -0.27
     8   1    -0.00  -0.00   0.57    -0.00   0.00   0.00     0.00   0.00   0.57
     9   1     0.00   0.00   0.29     0.00   0.00  -0.49    -0.00   0.00  -0.29
    10   1     0.00  -0.00  -0.28    -0.00  -0.00  -0.50     0.00  -0.00  -0.27
    11   1    -0.00  -0.00  -0.57    -0.00   0.00  -0.00    -0.00  -0.00   0.57
    12   1     0.00   0.00  -0.29     0.00   0.00   0.49     0.00   0.00  -0.29
                     10                     11                     12
                     E2U                    B2G                    B1U
 Frequencies --    973.8296              1012.5241              1017.8570
 Red. masses --      1.3596                 1.2236                 6.5560
 Frc consts  --      0.7597                 0.7391                 4.0019
 IR Inten    --      0.0000                 0.0000                 0.0000
  Atom  AN      X      Y      Z        X      Y      Z        X      Y      Z
     1   6     0.00   0.00  -0.09    -0.00  -0.00  -0.06    -0.00   0.29  -0.00
     2   6    -0.00   0.00   0.00     0.00   0.00   0.06    -0.25  -0.15   0.00
     3   6    -0.00   0.00   0.09    -0.00   0.00  -0.06     0.25  -0.15  -0.00
     4   6    -0.00  -0.00  -0.09    -0.00  -0.00   0.06    -0.00   0.29   0.00
     5   6    -0.00  -0.00   0.00     0.00   0.00  -0.06    -0.25  -0.15  -0.00
     6   6     0.00   0.00   0.09    -0.00   0.00   0.06     0.25  -0.15   0.00
     7   1     0.00   0.00   0.50    -0.00  -0.00   0.40    -0.00   0.29   0.00
     8   1    -0.00   0.00  -0.01     0.00   0.00  -0.40    -0.25  -0.14  -0.00
     9   1     0.00   0.00  -0.49    -0.00   0.00   0.40     0.25  -0.14   0.00
    10   1     0.00  -0.00   0.50     0.00  -0.00  -0.40    -0.00   0.29  -0.00
    11   1    -0.00   0.00  -0.01     0.00   0.00   0.40    -0.25  -0.14   0.00
    12   1     0.00   0.00  -0.49    -0.00   0.00  -0.40     0.25  -0.14  -0.00
                     13                     14                     15
                     A1G                    E1U                    E1U
 Frequencies --   1019.9023              1066.3434              1066.3434
 Red. masses --      6.0150                 1.6850                 1.6850
 Frc consts  --      3.6864                 1.1289                 1.1289
 IR Inten    --      0.0000                 3.4006                 3.4014
  Atom  AN      X      Y      Z        X      Y      Z        X      Y      Z
     1   6    -0.00   0.28  -0.00    -0.01  -0.12   0.00     0.08  -0.02   0.00
     2   6     0.24   0.14   0.00    -0.07   0.05   0.00    -0.08  -0.08   0.00
     3   6     0.24  -0.14  -0.00     0.10   0.02  -0.00    -0.05   0.09   0.00
     4   6    -0.00  -0.28   0.00    -0.01  -0.12  -0.00     0.08  -0.02  -0.00
     5   6    -0.24  -0.14  -0.00    -0.07   0.05  -0.00    -0.08  -0.08  -0.00
     6   6    -0.24   0.14   0.00     0.10   0.02   0.00    -0.05   0.09  -0.00
     7   1    -0.00   0.30   0.00    -0.09  -0.12  -0.00     0.54  -0.02  -0.00
     8   1     0.26   0.15  -0.00    -0.29   0.42  -0.00    -0.01  -0.23  -0.00
     9   1     0.26  -0.15   0.00     0.28   0.33   0.00     0.09   0.35  -0.00
    10   1    -0.00  -0.30  -0.00    -0.09  -0.12   0.00     0.54  -0.02   0.00
    11   1    -0.26  -0.15   0.00    -0.29   0.42   0.00    -0.01  -0.23   0.00
    12   1    -0.26   0.15  -0.00     0.28   0.33  -0.00     0.09   0.35   0.00
                     16                     17                     18
                     B2U                    E2G                    E2G
 Frequencies --   1179.2742              1202.2412              1202.2412
 Red. masses --      1.0793                 1.1341                 1.1341
 Frc consts  --      0.8843                 0.9658                 0.9658
 IR Inten    --      0.0000                 0.0000                 0.0000
  Atom  AN      X      Y      Z        X      Y      Z        X      Y      Z
     1   6     0.03   0.00  -0.00     0.01  -0.00  -0.00     0.06   0.00  -0.00
     2   6    -0.02   0.03   0.00     0.03  -0.04   0.00    -0.02   0.04  -0.00
     3   6    -0.02  -0.03  -0.00     0.03   0.05  -0.00     0.01   0.02   0.00
     4   6     0.03  -0.00   0.00    -0.01   0.00   0.00    -0.06  -0.00   0.00
     5   6    -0.02   0.03  -0.00    -0.03   0.04  -0.00     0.02  -0.04  -0.00
     6   6    -0.02  -0.03   0.00    -0.03  -0.05   0.00    -0.01  -0.02   0.00
     7   1     0.41  -0.00   0.00     0.12  -0.00   0.00     0.56   0.00   0.00
     8   1    -0.20   0.35  -0.00     0.22  -0.37   0.00    -0.19   0.33  -0.00
     9   1    -0.20  -0.35   0.00     0.27   0.47   0.00     0.09   0.16   0.00
    10   1     0.41  -0.00   0.00    -0.12   0.00  -0.00    -0.56  -0.00  -0.00
    11   1    -0.20   0.35  -0.00    -0.22   0.37   0.00     0.19  -0.33  -0.00
    12   1    -0.20  -0.35   0.00    -0.27  -0.47  -0.00    -0.09  -0.16  -0.00
                     19                     20                     21
                     B2U                    A2G                    E1U
 Frequencies --   1355.9955              1380.2626              1524.3635
 Red. masses --      6.7097                 1.2476                 2.0370
 Frc consts  --      7.2689                 1.4003                 2.7888
 IR Inten    --      0.0000                 0.0000                 6.6160
  Atom  AN      X      Y      Z        X      Y      Z        X      Y      Z
     1   6     0.29  -0.00  -0.00    -0.06  -0.00   0.00     0.01   0.09  -0.00
     2   6    -0.15   0.25  -0.00    -0.03   0.05   0.00     0.10  -0.10  -0.00
     3   6    -0.15  -0.25   0.00     0.03   0.05   0.00    -0.11  -0.08   0.00
     4   6     0.29  -0.00   0.00     0.06  -0.00   0.00     0.01   0.09   0.00
     5   6    -0.15   0.25  -0.00     0.03  -0.05  -0.00     0.10  -0.10   0.00
     6   6    -0.15  -0.25   0.00    -0.03  -0.05  -0.00    -0.11  -0.08  -0.00
     7   1    -0.28  -0.00   0.00     0.40  -0.00   0.00    -0.04   0.12   0.00
     8   1     0.14  -0.25  -0.00     0.20  -0.35  -0.00    -0.20   0.44   0.00
     9   1     0.14   0.25   0.00    -0.20  -0.35  -0.00     0.17   0.42  -0.00
    10   1    -0.28  -0.00  -0.00    -0.40  -0.00   0.00    -0.04   0.12  -0.00
    11   1     0.14  -0.25  -0.00    -0.20   0.35   0.00    -0.20   0.44  -0.00
    12   1     0.14   0.25   0.00     0.20   0.35   0.00     0.17   0.42   0.00
                     22                     23                     24
                     E1U                    E2G                    E2G
 Frequencies --   1524.3635              1653.0147              1653.0147
 Red. masses --      2.0370                 5.4003                 5.4003
 Frc consts  --      2.7888                 8.6940                 8.6940
 IR Inten    --      6.6138                 0.0000                 0.0000
  Atom  AN      X      Y      Z        X      Y      Z        X      Y      Z
     1   6    -0.15   0.01  -0.00     0.26  -0.09   0.00     0.20   0.12  -0.00
     2   6     0.04   0.10  -0.00    -0.20   0.24   0.00    -0.06  -0.18   0.00
     3   6     0.03  -0.11  -0.00     0.11  -0.11  -0.00     0.18   0.28  -0.00
     4   6    -0.15   0.01   0.00    -0.26   0.09   0.00    -0.20  -0.12  -0.00
     5   6     0.04   0.10   0.00     0.20  -0.24   0.00     0.06   0.18   0.00
     6   6     0.03  -0.11   0.00    -0.11   0.11  -0.00    -0.18  -0.28   0.00
     7   1     0.54   0.01   0.00    -0.33  -0.10   0.00    -0.25   0.13  -0.00
     8   1     0.21  -0.15   0.00     0.14  -0.36   0.00    -0.21   0.06   0.00
     9   1     0.23   0.21   0.00     0.17  -0.04  -0.00    -0.19  -0.37   0.00
    10   1     0.54   0.01   0.00     0.33   0.10   0.00     0.25  -0.13  -0.00
    11   1     0.21  -0.15  -0.00    -0.14   0.36  -0.00     0.21  -0.06   0.00
    12   1     0.23   0.21  -0.00    -0.17   0.04  -0.00     0.19   0.37  -0.00
                     25                     26                     27
                     B1U                    E2G                    E2G
 Frequencies --   3174.3940              3183.9573              3183.9573
 Red. masses --      1.0834                 1.0876                 1.0876
 Frc consts  --      6.4321                 6.4960                 6.4960
 IR Inten    --      0.0000                 0.0000                 0.0000
  Atom  AN      X      Y      Z        X      Y      Z        X      Y      Z
     1   6    -0.00  -0.03   0.00    -0.00   0.01   0.00    -0.00  -0.05   0.00
     2   6     0.03   0.02  -0.00     0.03   0.02  -0.00     0.03   0.02  -0.00
     3   6    -0.03   0.02   0.00    -0.04   0.02  -0.00     0.01  -0.01  -0.00
     4   6     0.00  -0.03   0.00     0.00  -0.01   0.00     0.00   0.05  -0.00
     5   6     0.03   0.02   0.00    -0.03  -0.02   0.00    -0.03  -0.02   0.00
     6   6    -0.03   0.02   0.00     0.04  -0.02  -0.00    -0.01   0.01  -0.00
     7   1     0.00   0.41  -0.00     0.00  -0.14   0.00     0.00   0.56  -0.00
     8   1    -0.35  -0.20   0.00    -0.36  -0.21   0.00    -0.35  -0.20   0.00
     9   1     0.35  -0.20   0.00     0.48  -0.28  -0.00    -0.14   0.08  -0.00
    10   1    -0.00   0.41  -0.00    -0.00   0.14   0.00    -0.00  -0.56   0.00
    11   1    -0.35  -0.20   0.00     0.36   0.21  -0.00     0.35   0.20  -0.00
    12   1     0.35  -0.20  -0.00    -0.48   0.28  -0.00     0.14  -0.08   0.00
                     28                     29                     30
                     E1U                    E1U                    A1G
 Frequencies --   3199.6137              3199.6137              3210.2007
 Red. masses --      1.0953                 1.0953                 1.0997
 Frc consts  --      6.6066                 6.6066                 6.6773
 IR Inten    --     46.5531                46.5581                 0.0000
  Atom  AN      X      Y      Z        X      Y      Z        X      Y      Z
     1   6     0.00   0.01  -0.00     0.00  -0.05   0.00    -0.00  -0.04   0.00
     2   6    -0.03  -0.02   0.00    -0.03  -0.02   0.00    -0.03  -0.02   0.00
     3   6    -0.04   0.03  -0.00     0.01  -0.00  -0.00    -0.03   0.02  -0.00
     4   6     0.00   0.01  -0.00     0.00  -0.05   0.00    -0.00   0.04  -0.00
     5   6    -0.03  -0.02   0.00    -0.03  -0.02   0.00     0.03   0.02  -0.00
     6   6    -0.04   0.03  -0.00     0.01  -0.00   0.00     0.03  -0.02   0.00
     7   1    -0.00  -0.14   0.00    -0.00   0.56  -0.00     0.00   0.41  -0.00
     8   1     0.36   0.21  -0.00     0.35   0.20  -0.00     0.35   0.20  -0.00
     9   1     0.48  -0.28  -0.00    -0.14   0.08  -0.00     0.35  -0.20  -0.00
    10   1    -0.00  -0.14   0.00    -0.00   0.56  -0.00     0.00  -0.41   0.00
    11   1     0.36   0.21   0.00     0.35   0.20  -0.00    -0.35  -0.20   0.00
    12   1     0.48  -0.28   0.00    -0.14   0.08  -0.00    -0.35   0.20  -0.00

 -------------------
 - Thermochemistry -
 -------------------
 Temperature   298.150 Kelvin.  Pressure   1.00000 Atm.
 Atom     1 has atomic number  6 and mass  12.00000
 Atom     2 has atomic number  6 and mass  12.00000
 Atom     3 has atomic number  6 and mass  12.00000
 Atom     4 has atomic number  6 and mass  12.00000
 Atom     5 has atomic number  6 and mass  12.00000
 Atom     6 has atomic number  6 and mass  12.00000
 Atom     7 has atomic number  1 and mass   1.00783
 Atom     8 has atomic number  1 and mass   1.00783
 Atom     9 has atomic number  1 and mass   1.00783
 Atom    10 has atomic number  1 and mass   1.00783
 Atom    11 has atomic number  1 and mass   1.00783
 Atom    12 has atomic number  1 and mass   1.00783
 Molecular mass:    78.04695 amu.
 Principal axes and moments of inertia in atomic units:
                           1         2         3
     Eigenvalues --   317.13566 317.13566 634.27131
           X           -0.45598   0.88999   0.00000
           Y            0.88999   0.45598   0.00000
           Z           -0.00000  -0.00000   1.00000
 This molecule is an oblate symmetric top.
 Rotational symmetry number 12.
 Rotational temperatures (Kelvin)      0.27311     0.27311     0.13656
 Rotational constants (GHZ):           5.69075     5.69075     2.84538
 Zero-point vibrational energy     264179.3 (Joules/Mol)
                                   63.14036 (Kcal/Mol)
 Warning -- explicit consideration of   2 degrees of freedom as
           vibrations may cause significant error
 Vibrational temperatures:    595.81   595.81   893.40   893.40   997.43
          (Kelvin)           1033.46  1243.50  1243.50  1401.12  1401.12
                             1456.80  1464.47  1467.41  1534.23  1534.23
                             1696.71  1729.76  1729.76  1950.98  1985.89
                             2193.22  2193.22  2378.32  2378.32  4567.24
                             4581.00  4581.00  4603.53  4603.53  4618.76
 
 Zero-point correction=                           0.100621 (Hartree/Particle)
 Thermal correction to Energy=                    0.105011
 Thermal correction to Enthalpy=                  0.105956
 Thermal correction to Gibbs Free Energy=         0.075504
 Sum of electronic and zero-point Energies=           -232.157581
 Sum of electronic and thermal Energies=              -232.153190
 Sum of electronic and thermal Enthalpies=            -232.152246
 Sum of electronic and thermal Free Energies=         -232.182698
 
                     E (Thermal)             CV                S
                      KCal/Mol        Cal/Mol-Kelvin    Cal/Mol-Kelvin
 Total                   65.896             17.152             64.091
 Electronic               0.000              0.000              0.000
 Translational            0.889              2.981             38.979
 Rotational               0.889              2.981             20.721
 Vibrational             64.118             11.191              4.390
 Vibration     1          0.778              1.440              0.912
 Vibration     2          0.778              1.440              0.912
                       Q            Log10(Q)             Ln(Q)
 Total Bot       0.186458D-34        -34.729419        -79.967442
 Total V=0       0.357100D+12         11.552789         26.601280
 Vib (Bot)       0.913159D-46        -46.039453       -106.009759
 Vib (Bot)    1  0.425923D+00         -0.370669         -0.853497
 Vib (Bot)    2  0.425923D+00         -0.370669         -0.853497
 Vib (V=0)       0.174886D+01          0.242755          0.558963
 Vib (V=0)    1  0.115682D+01          0.063265          0.145673
 Vib (V=0)    2  0.115682D+01          0.063265          0.145673
 Electronic      0.100000D+01          0.000000          0.000000
 Translational   0.271012D+08          7.432988         17.115087
 Rotational      0.753437D+04          3.877047          8.927231
                           ----------------------------
                           ! Normal Mode     1        !
 --------------------------                            --------------------------
 ! Name  Definition              Value          Relative Weight (%)             !
 --------------------------------------------------------------------------------
 ! R1    R(1,2)                  0.0                     0.0                    !
 ! R2    R(1,6)                  0.0                     0.0                    !
 ! R3    R(1,7)                  0.0                     0.0                    !
 ! R4    R(2,3)                  0.0                     0.0                    !
 ! R5    R(2,8)                  0.0                     0.0                    !
 ! R6    R(3,4)                  0.0                     0.0                    !
 ! R7    R(3,9)                  0.0                     0.0                    !
 ! R8    R(4,5)                  0.0                     0.0                    !
 ! R9    R(4,10)                 0.0                     0.0                    !
 ! R10   R(5,6)                  0.0                     0.0                    !
 ! R11   R(5,11)                 0.0                     0.0                    !
 ! R12   R(6,12)                 0.0                     0.0                    !
 ! A1    A(2,1,6)                0.0                     0.0                    !
 ! A2    A(2,1,7)                0.0                     0.0                    !
 ! A3    A(6,1,7)                0.0                     0.0                    !
 ! A4    A(1,2,3)                0.0                     0.0                    !
 ! A5    A(1,2,8)                0.0                     0.0                    !
 ! A6    A(3,2,8)                0.0                     0.0                    !
 ! A7    A(2,3,4)                0.0                     0.0                    !
 ! A8    A(2,3,9)                0.0                     0.0                    !
 ! A9    A(4,3,9)                0.0                     0.0                    !
 ! A10   A(3,4,5)                0.0                     0.0                    !
 ! A11   A(3,4,10)               0.0                     0.0                    !
 ! A12   A(5,4,10)               0.0                     0.0                    !
 ! A13   A(4,5,6)                0.0                     0.0                    !
 ! A14   A(4,5,11)               0.0                     0.0                    !
 ! A15   A(6,5,11)               0.0                     0.0                    !
 ! A16   A(1,6,5)                0.0                     0.0                    !
 ! A17   A(1,6,12)               0.0                     0.0                    !
 ! A18   A(5,6,12)               0.0                     0.0                    !
 ! D1    D(6,1,2,3)              0.3231                  9.2                    !
 ! D2    D(6,1,2,8)              0.164                   4.7                    !
 ! D3    D(7,1,2,3)              0.2395                  6.8                    !
 ! D4    D(7,1,2,8)              0.0804                  2.3                    !
 ! D5    D(2,1,6,5)             -0.0108                  0.3                    !
 ! D6    D(2,1,6,12)            -0.0863                  2.5                    !
 ! D7    D(7,1,6,5)              0.0728                  2.1                    !
 ! D8    D(7,1,6,12)            -0.0027                  0.1                    !
 ! D9    D(1,2,3,4)             -0.3123                  8.9                    !
 ! D10   D(1,2,3,9)             -0.2368                  6.7                    !
 ! D11   D(8,2,3,4)             -0.1532                  4.4                    !
 ! D12   D(8,2,3,9)             -0.0777                  2.2                    !
 ! D13   D(2,3,4,5)             -0.0108                  0.3                    !
 ! D14   D(2,3,4,10)             0.0728                  2.1                    !
 ! D15   D(9,3,4,5)             -0.0863                  2.5                    !
 ! D16   D(9,3,4,10)            -0.0027                  0.1                    !
 ! D17   D(3,4,5,6)              0.3231                  9.2                    !
 ! D18   D(3,4,5,11)             0.164                   4.7                    !
 ! D19   D(10,4,5,6)             0.2395                  6.8                    !
 ! D20   D(10,4,5,11)            0.0804                  2.3                    !
 ! D21   D(4,5,6,1)             -0.3123                  8.9                    !
 ! D22   D(4,5,6,12)            -0.2368                  6.7                    !
 ! D23   D(11,5,6,1)            -0.1532                  4.4                    !
 ! D24   D(11,5,6,12)           -0.0777                  2.2                    !
 --------------------------------------------------------------------------------
                           ----------------------------
                           ! Normal Mode     2        !
 --------------------------                            --------------------------
 ! Name  Definition              Value          Relative Weight (%)             !
 --------------------------------------------------------------------------------
 ! R1    R(1,2)                  0.0                     0.0                    !
 ! R2    R(1,6)                  0.0                     0.0                    !
 ! R3    R(1,7)                  0.0                     0.0                    !
 ! R4    R(2,3)                  0.0                     0.0                    !
 ! R5    R(2,8)                  0.0                     0.0                    !
 ! R6    R(3,4)                  0.0                     0.0                    !
 ! R7    R(3,9)                  0.0                     0.0                    !
 ! R8    R(4,5)                  0.0                     0.0                    !
 ! R9    R(4,10)                 0.0                     0.0                    !
 ! R10   R(5,6)                  0.0                     0.0                    !
 ! R11   R(5,11)                 0.0                     0.0                    !
 ! R12   R(6,12)                 0.0                     0.0                    !
 ! A1    A(2,1,6)                0.0                     0.0                    !
 ! A2    A(2,1,7)                0.0                     0.0                    !
 ! A3    A(6,1,7)                0.0                     0.0                    !
 ! A4    A(1,2,3)                0.0                     0.0                    !
 ! A5    A(1,2,8)                0.0                     0.0                    !
 ! A6    A(3,2,8)                0.0                     0.0                    !
 ! A7    A(2,3,4)                0.0                     0.0                    !
 ! A8    A(2,3,9)                0.0                     0.0                    !
 ! A9    A(4,3,9)                0.0                     0.0                    !
 ! A10   A(3,4,5)                0.0                     0.0                    !
 ! A11   A(3,4,10)               0.0                     0.0                    !
 ! A12   A(5,4,10)               0.0                     0.0                    !
 ! A13   A(4,5,6)                0.0                     0.0                    !
 ! A14   A(4,5,11)               0.0                     0.0                    !
 ! A15   A(6,5,11)               0.0                     0.0                    !
 ! A16   A(1,6,5)                0.0                     0.0                    !
 ! A17   A(1,6,12)               0.0                     0.0                    !
 ! A18   A(5,6,12)               0.0                     0.0                    !
 ! D1    D(6,1,2,3)              0.174                   4.7                    !
 ! D2    D(6,1,2,8)              0.1787                  4.9                    !
 ! D3    D(7,1,2,3)              0.0386                  1.1                    !
 ! D4    D(7,1,2,8)              0.0433                  1.2                    !
 ! D5    D(2,1,6,5)             -0.3669                 10.0                    !
 ! D6    D(2,1,6,12)            -0.2267                  6.2                    !
 ! D7    D(7,1,6,5)             -0.2314                  6.3                    !
 ! D8    D(7,1,6,12)            -0.0913                  2.5                    !
 ! D9    D(1,2,3,4)              0.1928                  5.3                    !
 ! D10   D(1,2,3,9)              0.0527                  1.4                    !
 ! D11   D(8,2,3,4)              0.1881                  5.1                    !
 ! D12   D(8,2,3,9)              0.048                   1.3                    !
 ! D13   D(2,3,4,5)             -0.3669                 10.0                    !
 ! D14   D(2,3,4,10)            -0.2314                  6.3                    !
 ! D15   D(9,3,4,5)             -0.2267                  6.2                    !
 ! D16   D(9,3,4,10)            -0.0913                  2.5                    !
 ! D17   D(3,4,5,6)              0.174                   4.7                    !
 ! D18   D(3,4,5,11)             0.1787                  4.9                    !
 ! D19   D(10,4,5,6)             0.0386                  1.1                    !
 ! D20   D(10,4,5,11)            0.0433                  1.2                    !
 ! D21   D(4,5,6,1)              0.1928                  5.3                    !
 ! D22   D(4,5,6,12)             0.0527                  1.4                    !
 ! D23   D(11,5,6,1)             0.1881                  5.1                    !
 ! D24   D(11,5,6,12)            0.048                   1.3                    !
 --------------------------------------------------------------------------------
                           ----------------------------
                           ! Normal Mode     3        !
 --------------------------                            --------------------------
 ! Name  Definition              Value          Relative Weight (%)             !
 --------------------------------------------------------------------------------
 ! R1    R(1,2)                 -0.0403                  1.5                    !
 ! R2    R(1,6)                 -0.0071                  0.3                    !
 ! R3    R(1,7)                 -0.0011                  0.0                    !
 ! R4    R(2,3)                  0.0474                  1.7                    !
 ! R5    R(2,8)                  0.0002                  0.0                    !
 ! R6    R(3,4)                 -0.0071                  0.3                    !
 ! R7    R(3,9)                  0.0009                  0.0                    !
 ! R8    R(4,5)                 -0.0403                  1.5                    !
 ! R9    R(4,10)                -0.0011                  0.0                    !
 ! R10   R(5,6)                  0.0474                  1.7                    !
 ! R11   R(5,11)                 0.0002                  0.0                    !
 ! R12   R(6,12)                 0.0009                  0.0                    !
 ! A1    A(2,1,6)               -0.2819                 10.3                    !
 ! A2    A(2,1,7)                0.1774                  6.5                    !
 ! A3    A(6,1,7)                0.1045                  3.8                    !
 ! A4    A(1,2,3)                0.0422                  1.5                    !
 ! A5    A(1,2,8)                0.0752                  2.7                    !
 ! A6    A(3,2,8)               -0.1174                  4.3                    !
 ! A7    A(2,3,4)                0.2397                  8.7                    !
 ! A8    A(2,3,9)               -0.1797                  6.5                    !
 ! A9    A(4,3,9)               -0.0601                  2.2                    !
 ! A10   A(3,4,5)               -0.2819                 10.3                    !
 ! A11   A(3,4,10)               0.1045                  3.8                    !
 ! A12   A(5,4,10)               0.1774                  6.5                    !
 ! A13   A(4,5,6)                0.0422                  1.5                    !
 ! A14   A(4,5,11)               0.0752                  2.7                    !
 ! A15   A(6,5,11)              -0.1174                  4.3                    !
 ! A16   A(1,6,5)                0.2397                  8.7                    !
 ! A17   A(1,6,12)              -0.0601                  2.2                    !
 ! A18   A(5,6,12)              -0.1797                  6.5                    !
 ! D1    D(6,1,2,3)              0.0                     0.0                    !
 ! D2    D(6,1,2,8)              0.0                     0.0                    !
 ! D3    D(7,1,2,3)              0.0                     0.0                    !
 ! D4    D(7,1,2,8)              0.0                     0.0                    !
 ! D5    D(2,1,6,5)              0.0                     0.0                    !
 ! D6    D(2,1,6,12)             0.0                     0.0                    !
 ! D7    D(7,1,6,5)              0.0                     0.0                    !
 ! D8    D(7,1,6,12)             0.0                     0.0                    !
 ! D9    D(1,2,3,4)              0.0                     0.0                    !
 ! D10   D(1,2,3,9)              0.0                     0.0                    !
 ! D11   D(8,2,3,4)              0.0                     0.0                    !
 ! D12   D(8,2,3,9)              0.0                     0.0                    !
 ! D13   D(2,3,4,5)              0.0                     0.0                    !
 ! D14   D(2,3,4,10)             0.0                     0.0                    !
 ! D15   D(9,3,4,5)              0.0                     0.0                    !
 ! D16   D(9,3,4,10)             0.0                     0.0                    !
 ! D17   D(3,4,5,6)              0.0                     0.0                    !
 ! D18   D(3,4,5,11)             0.0                     0.0                    !
 ! D19   D(10,4,5,6)             0.0                     0.0                    !
 ! D20   D(10,4,5,11)            0.0                     0.0                    !
 ! D21   D(4,5,6,1)              0.0                     0.0                    !
 ! D22   D(4,5,6,12)             0.0                     0.0                    !
 ! D23   D(11,5,6,1)             0.0                     0.0                    !
 ! D24   D(11,5,6,12)            0.0                     0.0                    !
 --------------------------------------------------------------------------------
                           ----------------------------
                           ! Normal Mode     4        !
 --------------------------                            --------------------------
 ! Name  Definition              Value          Relative Weight (%)             !
 --------------------------------------------------------------------------------
 ! R1    R(1,2)                 -0.0314                  1.1                    !
 ! R2    R(1,6)                  0.0506                  1.8                    !
 ! R3    R(1,7)                  0.0004                  0.0                    !
 ! R4    R(2,3)                 -0.0192                  0.7                    !
 ! R5    R(2,8)                 -0.0011                  0.0                    !
 ! R6    R(3,4)                  0.0506                  1.8                    !
 ! R7    R(3,9)                  0.0007                  0.0                    !
 ! R8    R(4,5)                 -0.0314                  1.1                    !
 ! R9    R(4,10)                 0.0004                  0.0                    !
 ! R10   R(5,6)                 -0.0192                  0.7                    !
 ! R11   R(5,11)                -0.0011                  0.0                    !
 ! R12   R(6,12)                 0.0007                  0.0                    !
 ! A1    A(2,1,6)                0.1141                  4.1                    !
 ! A2    A(2,1,7)                0.0331                  1.2                    !
 ! A3    A(6,1,7)               -0.1472                  5.4                    !
 ! A4    A(1,2,3)               -0.3012                 11.0                    !
 ! A5    A(1,2,8)                0.1641                  6.0                    !
 ! A6    A(3,2,8)                0.1371                  5.0                    !
 ! A7    A(2,3,4)                0.1871                  6.8                    !
[...]
      3   0.000000D+00  0.000000D+00
 Symmetrized Coordinates in SymCor: 
                 1             2             3             4             5 
      1   0.000000D+00  0.228518D+01  0.228518D+01  0.000000D+00 -0.228518D+01
      2   0.263870D+01  0.131935D+01 -0.131935D+01 -0.263870D+01 -0.131935D+01
      3   0.000000D+00  0.000000D+00  0.000000D+00  0.000000D+00  0.000000D+00
                 6             7             8             9            10 
      1  -0.228518D+01  0.000000D+00  0.406304D+01  0.406304D+01  0.000000D+00
      2   0.131935D+01  0.469159D+01  0.234579D+01 -0.234579D+01 -0.469159D+01
      3   0.000000D+00  0.000000D+00  0.000000D+00  0.000000D+00  0.000000D+00
                11            12 
      1  -0.406304D+01 -0.406304D+01
      2  -0.234579D+01  0.234579D+01
      3   0.000000D+00  0.000000D+00
 Final Coordinates in SymCor: 
                 1             2             3             4             5 
      1   0.000000D+00  0.228518D+01  0.228518D+01  0.000000D+00 -0.228518D+01
      2   0.263870D+01  0.131935D+01 -0.131935D+01 -0.263870D+01 -0.131935D+01
      3   0.000000D+00  0.000000D+00  0.000000D+00  0.000000D+00  0.000000D+00
                 6             7             8             9            10 
      1  -0.228518D+01  0.000000D+00  0.406304D+01  0.406304D+01  0.000000D+00
      2   0.131935D+01  0.469159D+01  0.234579D+01 -0.234579D+01 -0.469159D+01
      3   0.000000D+00  0.000000D+00  0.000000D+00  0.000000D+00  0.000000D+00
                11            12 
      1  -0.406304D+01 -0.406304D+01
      2  -0.234579D+01  0.234579D+01
      3   0.000000D+00  0.000000D+00
 ClnCor:  largest displacement from symmetrization is 1.48D-13 for atom    12.
 Variable       Old X    -DE/DX   Delta X   Delta X   Delta X     New X
                                 (Linear)    (Quad)   (Total)
    R1        2.63844   0.00014   0.00000   0.00026   0.00026   2.63870
    R2        2.63844   0.00014   0.00000   0.00026   0.00026   2.63870
    R3        2.05236   0.00019   0.00000   0.00053   0.00053   2.05289
    R4        2.63844   0.00014   0.00000   0.00026   0.00026   2.63870
    R5        2.05236   0.00019   0.00000   0.00053   0.00053   2.05289
    R6        2.63844   0.00014   0.00000   0.00026   0.00026   2.63870
    R7        2.05236   0.00019   0.00000   0.00053   0.00053   2.05289
    R8        2.63844   0.00014   0.00000   0.00026   0.00026   2.63870
    R9        2.05236   0.00019   0.00000   0.00053   0.00053   2.05289
   R10        2.63844   0.00014   0.00000   0.00026   0.00026   2.63870
   R11        2.05236   0.00019   0.00000   0.00053   0.00053   2.05289
   R12        2.05236   0.00019   0.00000   0.00053   0.00053   2.05289
    A1        2.09440  -0.00000   0.00000  -0.00000   0.00000   2.09440
    A2        2.09440   0.00000   0.00000   0.00000   0.00000   2.09440
    A3        2.09440  -0.00000   0.00000  -0.00000   0.00000   2.09440
    A4        2.09440  -0.00000   0.00000  -0.00000   0.00000   2.09440
    A5        2.09440   0.00000   0.00000  -0.00000  -0.00000   2.09440
    A6        2.09440   0.00000   0.00000   0.00000   0.00000   2.09440
    A7        2.09440   0.00000   0.00000   0.00000   0.00000   2.09440
    A8        2.09440  -0.00000   0.00000  -0.00000   0.00000   2.09440
    A9        2.09440   0.00000   0.00000   0.00000   0.00000   2.09440
   A10        2.09440  -0.00000   0.00000  -0.00000   0.00000   2.09440
   A11        2.09440   0.00000   0.00000   0.00000   0.00000   2.09440
   A12        2.09440  -0.00000   0.00000  -0.00000  -0.00000   2.09440
   A13        2.09440  -0.00000   0.00000  -0.00000   0.00000   2.09440
   A14        2.09440   0.00000   0.00000   0.00000   0.00000   2.09440
   A15        2.09440   0.00000   0.00000  -0.00000   0.00000   2.09440
   A16        2.09440   0.00000   0.00000   0.00000   0.00000   2.09440
   A17        2.09440  -0.00000   0.00000   0.00000   0.00000   2.09440
   A18        2.09440  -0.00000   0.00000  -0.00000  -0.00000   2.09440
    D1        0.00000   0.00000   0.00000   0.00000   0.00000   0.00000
    D2        3.14159   0.00000   0.00000   0.00000   0.00000   3.14159
    D3        3.14159  -0.00000   0.00000  -0.00000   0.00000   3.14159
    D4       -0.00000   0.00000   0.00000   0.00000   0.00000   0.00000
    D5        0.00000   0.00000   0.00000   0.00000   0.00000   0.00000
    D6        3.14159  -0.00000   0.00000  -0.00000   0.00000   3.14159
    D7        3.14159   0.00000   0.00000   0.00000   0.00000   3.14159
    D8        0.00000   0.00000   0.00000   0.00000  -0.00000   0.00000
    D9        0.00000  -0.00000   0.00000  -0.00000   0.00000   0.00000
   D10        3.14159  -0.00000   0.00000  -0.00000   0.00000   3.14159
   D11        3.14159  -0.00000   0.00000  -0.00000   0.00000   3.14159
   D12        0.00000  -0.00000   0.00000  -0.00000   0.00000   0.00000
   D13        0.00000   0.00000   0.00000   0.00000   0.00000   0.00000
   D14        3.14159  -0.00000   0.00000  -0.00000   0.00000   3.14159
   D15        3.14159   0.00000   0.00000   0.00000   0.00000   3.14159
   D16       -0.00000  -0.00000   0.00000  -0.00000   0.00000   0.00000
   D17        0.00000   0.00000   0.00000   0.00000   0.00000   0.00000
   D18        3.14159  -0.00000   0.00000  -0.00000   0.00000   3.14159
   D19        3.14159   0.00000   0.00000   0.00000   0.00000   3.14159
   D20        0.00000   0.00000   0.00000   0.00000   0.00000   0.00000
   D21        0.00000  -0.00000   0.00000  -0.00000   0.00000   0.00000
   D22        3.14159   0.00000   0.00000   0.00000   0.00000   3.14159
   D23        3.14159   0.00000   0.00000   0.00000   0.00000   3.14159
   D24        0.00000   0.00000   0.00000   0.00000   0.00000   0.00000
         Item               Value     Threshold  Converged?
 Maximum Force            0.000194     0.000450     YES
 RMS     Force            0.000079     0.000300     YES
 Maximum Displacement     0.000790     0.001800     YES
 RMS     Displacement     0.000277     0.001200     YES
 Predicted change in Energy=-4.164425D-07
 Optimization completed.
    -- Stationary point found.
                           ----------------------------
                           !   Optimized Parameters   !
                           ! (Angstroms and Degrees)  !
 --------------------------                            --------------------------
 ! Name  Definition              Value          Derivative Info.                !
 --------------------------------------------------------------------------------
 ! R1    R(1,2)                  1.3962         -DE/DX =    0.0001              !
 ! R2    R(1,6)                  1.3962         -DE/DX =    0.0001              !
 ! R3    R(1,7)                  1.0861         -DE/DX =    0.0002              !
 ! R4    R(2,3)                  1.3962         -DE/DX =    0.0001              !
 ! R5    R(2,8)                  1.0861         -DE/DX =    0.0002              !
 ! R6    R(3,4)                  1.3962         -DE/DX =    0.0001              !
 ! R7    R(3,9)                  1.0861         -DE/DX =    0.0002              !
 ! R8    R(4,5)                  1.3962         -DE/DX =    0.0001              !
 ! R9    R(4,10)                 1.0861         -DE/DX =    0.0002              !
 ! R10   R(5,6)                  1.3962         -DE/DX =    0.0001              !
 ! R11   R(5,11)                 1.0861         -DE/DX =    0.0002              !
 ! R12   R(6,12)                 1.0861         -DE/DX =    0.0002              !
 ! A1    A(2,1,6)              120.0            -DE/DX =    0.0                 !
 ! A2    A(2,1,7)              120.0            -DE/DX =    0.0                 !
 ! A3    A(6,1,7)              120.0            -DE/DX =    0.0                 !
 ! A4    A(1,2,3)              120.0            -DE/DX =    0.0                 !
 ! A5    A(1,2,8)              120.0            -DE/DX =    0.0                 !
 ! A6    A(3,2,8)              120.0            -DE/DX =    0.0                 !
 ! A7    A(2,3,4)              120.0            -DE/DX =    0.0                 !
 ! A8    A(2,3,9)              120.0            -DE/DX =    0.0                 !
 ! A9    A(4,3,9)              120.0            -DE/DX =    0.0                 !
 ! A10   A(3,4,5)              120.0            -DE/DX =    0.0                 !
 ! A11   A(3,4,10)             120.0            -DE/DX =    0.0                 !
 ! A12   A(5,4,10)             120.0            -DE/DX =    0.0                 !
 ! A13   A(4,5,6)              120.0            -DE/DX =    0.0                 !
 ! A14   A(4,5,11)             120.0            -DE/DX =    0.0                 !
 ! A15   A(6,5,11)             120.0            -DE/DX =    0.0                 !
 ! A16   A(1,6,5)              120.0            -DE/DX =    0.0                 !
 ! A17   A(1,6,12)             120.0            -DE/DX =    0.0                 !
 ! A18   A(5,6,12)             120.0            -DE/DX =    0.0                 !
 ! D1    D(6,1,2,3)              0.0            -DE/DX =    0.0                 !
 ! D2    D(6,1,2,8)            180.0            -DE/DX =    0.0                 !
 ! D3    D(7,1,2,3)            180.0            -DE/DX =    0.0                 !
 ! D4    D(7,1,2,8)              0.0            -DE/DX =    0.0                 !
 ! D5    D(2,1,6,5)              0.0            -DE/DX =    0.0                 !
 ! D6    D(2,1,6,12)           180.0            -DE/DX =    0.0                 !
 ! D7    D(7,1,6,5)            180.0            -DE/DX =    0.0                 !
 ! D8    D(7,1,6,12)             0.0            -DE/DX =    0.0                 !
 ! D9    D(1,2,3,4)              0.0            -DE/DX =    0.0                 !
 ! D10   D(1,2,3,9)            180.0            -DE/DX =    0.0                 !
 ! D11   D(8,2,3,4)            180.0            -DE/DX =    0.0                 !
 ! D12   D(8,2,3,9)              0.0            -DE/DX =    0.0                 !
 ! D13   D(2,3,4,5)              0.0            -DE/DX =    0.0                 !
 ! D14   D(2,3,4,10)           180.0            -DE/DX =    0.0                 !
 ! D15   D(9,3,4,5)            180.0            -DE/DX =    0.0                 !
 ! D16   D(9,3,4,10)             0.0            -DE/DX =    0.0                 !
 ! D17   D(3,4,5,6)              0.0            -DE/DX =    0.0                 !
 ! D18   D(3,4,5,11)           180.0            -DE/DX =    0.0                 !
 ! D19   D(10,4,5,6)           180.0            -DE/DX =    0.0                 !
 ! D20   D(10,4,5,11)            0.0            -DE/DX =    0.0                 !
 ! D21   D(4,5,6,1)              0.0            -DE/DX =    0.0                 !
 ! D22   D(4,5,6,12)           180.0            -DE/DX =    0.0                 !
 ! D23   D(11,5,6,1)           180.0            -DE/DX =    0.0                 !
 ! D24   D(11,5,6,12)            0.0            -DE/DX =    0.0                 !
 --------------------------------------------------------------------------------
 GradGradGradGradGradGradGradGradGradGradGradGradGradGradGradGradGradGrad

 Leave Link  103 at Sat Aug 10 16:34:22 2019, MaxMem=  4294967296 cpu:              12.1 elap:               0.9
 Dipole is zero, so no output in dipole orientation.

 ----------------------------------------------------------------------

 Electric dipole moment (input orientation):
 (Debye = 10**-18 statcoulomb cm , SI units = C m)
                  (au)            (Debye)         (10**-30 SI)
   Tot        0.000000D+00      0.000000D+00      0.000000D+00
   x          0.000000D+00      0.000000D+00      0.000000D+00
   y          0.000000D+00      0.000000D+00      0.000000D+00
   z          0.000000D+00      0.000000D+00      0.000000D+00

 Dipole polarizability, Alpha (input orientation).
 (esu units = cm**3 , SI units = C**2 m**2 J**-1)
 Alpha(0;0):
               (au)            (10**-24 esu)      (10**-40 SI)
   iso        0.549834D+02      0.814770D+01      0.906554D+01
   aniso      0.503400D+02      0.745961D+01      0.829994D+01
   xx         0.717628D+02      0.106342D+02      0.118321D+02
   yx         0.000000D+00      0.000000D+00      0.000000D+00
   yy         0.717639D+02      0.106343D+02      0.118323D+02
   zx         0.000000D+00      0.000000D+00      0.000000D+00
   zy         0.000000D+00      0.000000D+00      0.000000D+00
   zz         0.214234D+02      0.317462D+01      0.353224D+01

 ----------------------------------------------------------------------

 Test job not archived.
 1\1\NSC-N250\Freq\RB3LYP\6-31G(d,p)\C6H6\X_KJEJO\10-Aug-2019\0\\# freq
 (intmodes) iop(1/33=3) b3lyp/6-31g(d,p) geom=connectivity iop(7/75=-1)
 \\name\\0,1\C,0.,1.3962,0.\C,1.2091446688,0.6981,0.\C,1.2091446688,-0.
 6981,0.\C,0.,-1.3962,0.\C,-1.2091446688,-0.6981,0.\C,-1.2091446688,0.6
 981,0.\H,0.,2.482264,0.\H,2.1497036829,1.241132,0.\H,2.1497036829,-1.2
 41132,0.\H,0.,-2.482264,0.\H,-2.1497036829,-1.241132,0.\H,-2.149703682
 9,1.241132,0.\\Version=ES64L-G16RevB.01\State=1-A1G\HF=-232.2582016\RM
 SD=5.516e-09\RMSF=8.216e-05\ZeroPoint=0.1006206\Thermal=0.1050114\Dipo
 le=0.,0.,0.\DipoleDeriv=-0.0672059,0.,0.,0.,0.1301093,0.,0.,0.,-0.1086
 348,0.0807602,0.0854476,0.,0.0854261,-0.017895,0.,0.,0.,-0.1086344,0.0
 807602,-0.0854476,0.,-0.0854261,-0.017895,0.,0.,0.,-0.1086344,-0.06720
 59,0.,0.,0.,0.1301093,0.,0.,0.,-0.1086348,0.0807602,0.0854476,0.,0.085
 4261,-0.017895,0.,0.,0.,-0.1086344,0.0807602,-0.0854476,0.,-0.0854261,
 -0.017895,0.,0.,0.,-0.1086344,0.0572213,0.,0.,0.,-0.1200827,0.,0.,0.,0
 .1086349,-0.0757522,-0.0767756,0.,-0.0767727,0.0128974,0.,0.,0.,0.1086
 344,-0.0757522,0.0767756,0.,0.0767727,0.0128974,0.,0.,0.,0.1086344,0.0
 572213,0.,0.,0.,-0.1200827,0.,0.,0.,0.1086349,-0.0757522,-0.0767756,0.
 ,-0.0767727,0.0128974,0.,0.,0.,0.1086344,-0.0757522,0.0767756,0.,0.076
 7727,0.0128974,0.,0.,0.,0.1086344\Polar=71.762845,0.,71.7639098,0.,0.,
 21.4234128\Quadrupole=1.7493434,1.7493434,-3.4986868,0.,0.,0.\PG=D06H 
 [3C2'(H1C1.C1H1)]\NImag=0\\0.67111689,0.,0.74356094,0.,0.,0.13220686,-
 0.28792447,0.12534212,0.,0.72544993,0.05835889,-0.18186465,0.,0.031369
 19,0.68922791,0.,0.,-0.06137005,0.,0.,0.13220686,0.03483879,0.02849178
 ,0.,-0.12883473,0.03349161,0.,0.72544993,0.07815525,-0.02673390,0.,-0.
 03349161,-0.34095438,0.,-0.03136919,0.68922791,0.,0.,0.00782978,0.,0.,
 -0.06137005,0.,0.,0.13220686,-0.06961766,0.,0.,0.03483879,-0.07815525,
 0.,-0.28792447,-0.05835889,0.,0.67111689,0.,-0.00134602,0.,-0.02849178
 ,-0.02673390,0.,-0.12534212,-0.18186465,0.,0.,0.74356094,0.,0.,-0.0082
 1679,0.,0.,0.00782978,0.,0.,-0.06137005,0.,0.,0.13220686,0.03483879,-0
 .02849178,0.,-0.01841393,0.02956249,0.,-0.05752025,-0.02483173,0.,-0.2
 8792447,0.12534212,0.,0.72544993,-0.07815525,-0.02673390,0.,0.02956249
 ,-0.05254975,0.,0.02483173,0.06562514,0.,0.05835889,-0.18186465,0.,0.0
 3136919,0.68922791,0.,0.,0.00782978,0.,0.,-0.00821679,0.,0.,0.00782978
 ,0.,0.,-0.06137005,0.,0.,0.13220686,-0.28792447,-0.12534212,0.,-0.0575
 2025,0.02483173,0.,-0.01841393,-0.02956249,0.,0.03483879,0.02849178,0.
 ,-0.12883473,0.03349161,0.,0.72544993,-0.05835889,-0.18186465,0.,-0.02
 483173,0.06562514,0.,-0.02956249,-0.05254975,0.,0.07815525,-0.02673390
 ,0.,-0.03349161,-0.34095438,0.,-0.03136919,0.68922791,0.,0.,-0.0613700
 5,0.,0.,0.00782978,0.,0.,-0.00821679,0.,0.,0.00782978,0.,0.,-0.0613700
 5,0.,0.,0.13220686,-0.05996664,0.,0.,0.00490033,0.02868726,0.,-0.00475
 225,0.00201150,0.,-0.00135898,0.,0.,-0.00475225,-0.00201150,0.,0.00490
 033,-0.02868726,0.,0.05859182,0.,-0.33820044,0.,-0.00304601,-0.0117081
 2,0.,0.00325309,0.00075741,0.,0.,0.00078504,0.,-0.00325309,0.00075741,
 0.,0.00304601,-0.01170812,0.,0.,0.35903773,0.,0.,-0.03592109,0.,0.,0.0
 0257965,0.,0.,0.00712677,0.,0.,-0.00040120,0.,0.,0.00712677,0.,0.,0.00
 257965,0.,0.,0.02547817,-0.01865900,-0.01664799,0.,-0.26864199,-0.1204
 7877,0.,0.00354698,0.00226465,0.,0.00165963,0.00044881,0.,0.00024903,0
 .00092839,0.,-0.00289964,0.00432269,0.,0.00101662,0.00022839,0.,0.2839
 2625,0.01508528,0.01185120,0.,-0.12047877,-0.12952509,0.,-0.02946862,-
 0.01035478,0.,0.00169040,-0.00565446,0.,0.00092839,-0.00082298,0.,0.00
 308110,-0.00109520,0.,-0.00045301,0.00088693,0.,0.13009689,0.13370330,
 0.,0.,0.00257965,0.,0.,-0.03592109,0.,0.,0.00257965,0.,0.,0.00712677,0
 .,0.,-0.00040120,0.,0.,0.00712677,0.,0.,-0.00395880,0.,0.,0.02547817,0
 .00165963,-0.00044881,0.,0.00354698,-0.00226465,0.,-0.26864199,0.12047
 877,0.,-0.01865900,0.01664799,0.,-0.00289964,-0.00432269,0.,0.00024903
 ,-0.00092839,0.,0.00008361,-0.00017496,0.,0.00082209,0.00034070,0.,0.2
 8392625,-0.00169040,-0.00565446,0.,0.02946862,-0.01035478,0.,0.1204787
 7,-0.12952509,0.,-0.01508528,0.01185120,0.,-0.00308110,-0.00109520,0.,
 -0.00092839,-0.00082298,0.,0.00154052,-0.00070480,0.,-0.00034070,0.001
 08146,0.,-0.13009689,0.13370330,0.,0.,0.00712677,0.,0.,0.00257965,0.,0
 .,-0.03592109,0.,0.,0.00257965,0.,0.,0.00712677,0.,0.,-0.00040120,0.,0
 .,0.00032865,0.,0.,-0.00395880,0.,0.,0.02547817,-0.00135898,0.,0.,-0.0
 0475225,-0.00201150,0.,0.00490033,-0.02868726,0.,-0.05996664,0.,0.,0.0
 0490033,0.02868726,0.,-0.00475225,0.00201150,0.,0.00023693,0.,0.,0.000
 08361,-0.00154052,0.,0.00101662,0.00045301,0.,0.05859182,0.,0.00078504
 ,0.,-0.00325309,0.00075741,0.,0.00304601,-0.01170812,0.,0.,-0.33820044
 ,0.,-0.00304601,-0.01170812,0.,0.00325309,0.00075741,0.,0.,-0.00008433
 ,0.,0.00017496,-0.00070480,0.,-0.00022839,0.00088693,0.,0.,0.35903773,
 0.,0.,-0.00040120,0.,0.,0.00712677,0.,0.,0.00257965,0.,0.,-0.03592109,
 0.,0.,0.00257965,0.,0.,0.00712677,0.,0.,-0.00130847,0.,0.,0.00032865,0
 .,0.,-0.00395880,0.,0.,0.02547817,0.00165963,0.00044881,0.,0.00024903,
 0.00092839,0.,-0.00289964,0.00432269,0.,-0.01865900,-0.01664799,0.,-0.
 26864199,-0.12047877,0.,0.00354698,0.00226465,0.,0.00008361,0.00017496
 ,0.,-0.00000401,-0.00013911,0.,-0.00109900,-0.00085774,0.,0.00101662,0
 .00022839,0.,0.28392625,0.00169040,-0.00565446,0.,0.00092839,-0.000822
 98,0.,0.00308110,-0.00109520,0.,0.01508528,0.01185120,0.,-0.12047877,-
 0.12952509,0.,-0.02946862,-0.01035478,0.,-0.00154052,-0.00070480,0.,-0
 .00013911,0.00015662,0.,0.00085774,0.00047781,0.,-0.00045301,0.0008869
 3,0.,0.13009689,0.13370330,0.,0.,0.00712677,0.,0.,-0.00040120,0.,0.,0.
 00712677,0.,0.,0.00257965,0.,0.,-0.03592109,0.,0.,0.00257965,0.,0.,0.0
 0032865,0.,0.,-0.00130847,0.,0.,0.00032865,0.,0.,-0.00395880,0.,0.,0.0
 2547817,-0.01865900,0.01664799,0.,-0.00289964,-0.00432269,0.,0.0002490
 3,-0.00092839,0.,0.00165963,-0.00044881,0.,0.00354698,-0.00226465,0.,-
 0.26864199,0.12047877,0.,0.00101662,-0.00022839,0.,-0.00109900,0.00085
 774,0.,-0.00000401,0.00013911,0.,0.00008361,-0.00017496,0.,0.00082209,
 0.00034070,0.,0.28392625,-0.01508528,0.01185120,0.,-0.00308110,-0.0010
 9520,0.,-0.00092839,-0.00082298,0.,-0.00169040,-0.00565446,0.,0.029468
 62,-0.01035478,0.,0.12047877,-0.12952509,0.,0.00045301,0.00088693,0.,-
 0.00085774,0.00047781,0.,0.00013911,0.00015662,0.,0.00154052,-0.000704
 80,0.,-0.00034070,0.00108146,0.,-0.13009689,0.13370330,0.,0.,0.0025796
 5,0.,0.,0.00712677,0.,0.,-0.00040120,0.,0.,0.00712677,0.,0.,0.00257965
 ,0.,0.,-0.03592109,0.,0.,-0.00395880,0.,0.,0.00032865,0.,0.,-0.0013084
 7,0.,0.,0.00032865,0.,0.,-0.00395880,0.,0.,0.02547817\\0.,0.00005460,0
 .,0.00004729,0.00002730,0.,0.00004729,-0.00002730,0.,0.,-0.00005460,0.
 ,-0.00004729,-0.00002730,0.,-0.00004729,0.00002730,0.,0.,-0.00019370,0
 .,-0.00016775,-0.00009685,0.,-0.00016775,0.00009685,0.,0.,0.00019370,0
 .,0.00016775,0.00009685,0.,0.00016775,-0.00009685,0.\\\@


 ... THIS SEEMS PLAINLY ABSURD; BUT WHOEVER WISHES TO BECOME A 
 PHILOSOPHER MUST LEARN NOT TO BE FRIGHTENED BY ABSURDITIES.

                          -- BERTRAND RUSSELL
 Job cpu time:       0 days  0 hours  4 minutes  3.2 seconds.
 Elapsed time:       0 days  0 hours  0 minutes 17.1 seconds.
 File lengths (MBytes):  RWF=     11 Int=      0 D2E=      0 Chk=      8 Scr=      1
 Normal termination of Gaussian 16 at Sat Aug 10 16:34:22 2019.
