 Entering Gaussian System, Link 0=/software/sse/easybuild/prefix/software/Gaussian/16.B.01-avx2-nsc1-bdist/g16/g16.orig
 Input=freq-hp.wrap
 Output=freq-hp.log
 Initial command:
 /software/sse/easybuild/prefix/software/Gaussian/16.B.01-avx2-nsc1-bdist/g16/l1.exe "/scratch/local/Gau-254092.inp" -scrdir="/scratch/local/"
 Default is to use a total of  16 processors:
                               16 via shared-memory
                                1 via Linda
 Entering Link 1 = /software/sse/easybuild/prefix/software/Gaussian/16.B.01-avx2-nsc1-bdist/g16/l1.exe PID=    254102.
  
 Copyright (c) 1988-2017, Gaussian, Inc.  All Rights Reserved.
  
 This is part of the Gaussian(R) 16 program.  It is based on
 the Gaussian(R) 09 system (copyright 2009, Gaussian, Inc.),
 the Gaussian(R) 03 system (copyright 2003, Gaussian, Inc.),
 the Gaussian(R) 98 system (copyright 1998, Gaussian, Inc.),
 the Gaussian(R) 94 system (copyright 1995, Gaussian, Inc.),
 the Gaussian 92(TM) system (copyright 1992, Gaussian, Inc.),
 the Gaussian 90(TM) system (copyright 1990, Gaussian, Inc.),
 the Gaussian 88(TM) system (copyright 1988, Gaussian, Inc.),
 the Gaussian 86(TM) system (copyright 1986, Carnegie Mellon
 University), and the Gaussian 82(TM) system (copyright 1983,
 Carnegie Mellon University). Gaussian is a federally registered
 trademark of Gaussian, Inc.
  
 This software contains proprietary and confidential information,
 including trade secrets, belonging to Gaussian, Inc.
  
 This software is provided under written license and may be
 used, copied, transmitted, or stored only in accord with that
 written license.
  
 The following legend is applicable only to US Government
 contracts under FAR:
  
                    RESTRICTED RIGHTS LEGEND
  
 Use, reproduction and disclosure by the US Government is
 subject to restrictions as set forth in subparagraphs (a)
 and (c) of the Commercial Computer Software - Restricted
 Rights clause in FAR 52.227-19.
  
 Gaussian, Inc.
 340 Quinnipiac St., Bldg. 40, Wallingford CT 06492
  
  
 ---------------------------------------------------------------
 Warning -- This program may not be used in any manner that
 competes with the business of Gaussian, Inc. or will provide
 assistance to any competitor of Gaussian, Inc.  The licensee
 of this program is prohibited from giving any competitor of
 Gaussian, Inc. access to this program.  By using this program,
 the user acknowledges that Gaussian, Inc. is engaged in the
 business of creating and licensing software in the field of
 computational chemistry and represents and warrants to the
 licensee that it is not a competitor of Gaussian, Inc. and that
 it will not use this program in any manner prohibited above.
 ---------------------------------------------------------------
  

 Cite this work as:
 Gaussian 16, Revision B.01,
 M. J. Frisch, G. W. Trucks, H. B. Schlegel, G. E. Scuseria, 
 M. A. Robb, J. R. Cheeseman, G. Scalmani, V. Barone, 
 G. A. Petersson, H. Nakatsuji, X. Li, M. Caricato, A. V. Marenich, 
 J. Bloino, B. G. Janesko, R. Gomperts, B. Mennucci, H. P. Hratchian, 
 J. V. Ortiz, A. F. Izmaylov, J. L. Sonnenberg, D. Williams-Young, 
 F. Ding, F. Lipparini, F. Egidi, J. Goings, B. Peng, A. Petrone, 
 T. Henderson, D. Ranasinghe, V. G. Zakrzewski, J. Gao, N. Rega, 
 G. Zheng, W. Liang, M. Hada, M. Ehara, K. Toyota, R. Fukuda, 
 J. Hasegawa, M. Ishida, T. Nakajima, Y. Honda, O. Kitao, H. Nakai, 
 T. Vreven, K. Throssell, J. A. Montgomery, Jr., J. E. Peralta, 
 F. Ogliaro, M. J. Bearpark, J. J. Heyd, E. N. Brothers, K. N. Kudin, 
 V. N. Staroverov, T. A. Keith, R. Kobayashi, J. Normand, 
 K. Raghavachari, A. P. Rendell, J. C. Burant, S. S. Iyengar, 
 J. Tomasi, M. Cossi, J. M. Millam, M. Klene, C. Adamo, R. Cammi, 
 J. W. Ochterski, R. L. Martin, K. Morokuma, O. Farkas, 
 J. B. Foresman, and D. J. Fox, Gaussian, Inc., Wallingford CT, 2016.
 
 ******************************************
 Gaussian 16:  ES64L-G16RevB.01 20-Dec-2017
                10-Aug-2019 
 ******************************************
 %chk=freq.chk
 ----------------------------------------------------------------------
 # freq(hpmodes,intmodes) iop(1/33=3) b3lyp/6-31g(d,p) geom=connectivit
 y iop(7/75=-1)
 ----------------------------------------------------------------------
 1/10=4,18=20,30=1,33=3,38=1,57=2/1,3;
 2/9=110,12=2,17=6,18=5,40=1/2;
 3/5=1,6=6,7=101,11=2,25=1,30=1,71=2,74=-5,140=1/1,2,3;
 4//1;
 5/5=2,38=5,98=1/2;
 8/6=4,10=90,11=11/1;
 11/6=1,8=1,9=11,15=111,16=1/1,2,10;
 10/6=1/2;
 6/7=2,8=2,9=2,10=2,28=1/1;
 7/8=31,10=1,25=1,75=-1/1,2,3,16;
 1/10=4,18=20,30=1,33=3/3;
 99//99;
 ONIOM results not found on unit 2.
 ----
 name
 ----
 TstMul:  ICh=     0
 TstMul:  Mul=     1
 TstMul:  ICh=     0
 TstMul:  Mul=     1
 Symbolic Z-matrix:
 Charge =  0 Multiplicity = 1
 C                     0.        0.       -1.25054 
 H                     0.88527   0.51111  -1.64151 
 H                    -0.88527   0.51111  -1.64151 
 H                     0.       -1.02222  -1.64151 
 Si                    0.        0.        0.63764 
 H                     0.        1.39124   1.16695 
 H                    -1.20485  -0.69562   1.16695 
 H                     1.20485  -0.69562   1.16695 
 
 RdStrC is calling ZToCFu for IStruc=1 NZ=     8.
                                ZToCFu                                
 ---------------------------------------------------------------------
 Center     Atomic      Atomic             Coordinates (Angstroms)
 Number     Number       Type             X           Y           Z
 ---------------------------------------------------------------------
      1          6           0        0.000000    0.000000   -1.250541
      2          1           0        0.885269    0.511110   -1.641505
      3          1           0       -0.885269    0.511110   -1.641505
      4          1           0        0.000000   -1.022221   -1.641505
      5         14           0        0.000000    0.000000    0.637636
      6          1           0        0.000000    1.391243    1.166951
      7          1           0       -1.204852   -0.695622    1.166951
      8          1           0        1.204852   -0.695622    1.166951
 ---------------------------------------------------------------------
 Connectivity in DoCon:
 I=     1 IAn=  6 IBond, RBType=     2  1.00     3  1.00     4  1.00     5  1.00
 I=     2 IAn=  1 IBond, RBType=     1  1.00
 I=     3 IAn=  1 IBond, RBType=     1  1.00
 I=     4 IAn=  1 IBond, RBType=     1  1.00
 I=     5 IAn= 14 IBond, RBType=     1  1.00     6  1.00     7  1.00     8  1.00
 I=     6 IAn=  1 IBond, RBType=     5  1.00
 I=     7 IAn=  1 IBond, RBType=     5  1.00
 I=     8 IAn=  1 IBond, RBType=     5  1.00
 After GenITR:
 ITRead=  0  0  0  0  0  0  0  0
 MicOpt= -1 -1 -1 -1 -1 -1 -1 -1
 List IsCon N=      8 M=      2:
 I=      1 Vals=      2      1 |      3      1 |      4      1 |      5      1 |
 I=      2 Vals=      1      1 |
 I=      3 Vals=      1      1 |
 I=      4 Vals=      1      1 |
 I=      5 Vals=      1      1 |      6      1 |      7      1 |      8      1 |
 I=      6 Vals=      5      1 |
 I=      7 Vals=      5      1 |
 I=      8 Vals=      5      1 |
 Coordinate R1 contains atom 1 which is already in QM block.
 Coordinate R1 contains atom 2 which is already in QM block.
 Coordinate R2 contains atom 1 which is already in QM block.
 Coordinate R2 contains atom 3 which is already in QM block.
 Coordinate R3 contains atom 1 which is already in QM block.
 Coordinate R3 contains atom 4 which is already in QM block.
 Coordinate R4 contains atom 1 which is already in QM block.
 Coordinate R4 contains atom 5 which is already in QM block.
 Coordinate R5 contains atom 5 which is already in QM block.
 Coordinate R5 contains atom 6 which is already in QM block.
 Coordinate R6 contains atom 5 which is already in QM block.
 Coordinate R6 contains atom 7 which is already in QM block.
 Coordinate R7 contains atom 5 which is already in QM block.
 Coordinate R7 contains atom 8 which is already in QM block.
 Coordinate A1 contains atom 2 which is already in QM block.
 Coordinate A1 contains atom 1 which is already in QM block.
 Coordinate A1 contains atom 1 which is already in QM block.
 Coordinate A2 contains atom 2 which is already in QM block.
 Coordinate A2 contains atom 1 which is already in QM block.
 Coordinate A2 contains atom 1 which is already in QM block.
 Coordinate A3 contains atom 2 which is already in QM block.
 Coordinate A3 contains atom 1 which is already in QM block.
 Coordinate A3 contains atom 1 which is already in QM block.
 Coordinate A4 contains atom 3 which is already in QM block.
 Coordinate A4 contains atom 1 which is already in QM block.
 Coordinate A4 contains atom 1 which is already in QM block.
 Coordinate A5 contains atom 3 which is already in QM block.
 Coordinate A5 contains atom 1 which is already in QM block.
 Coordinate A5 contains atom 1 which is already in QM block.
 Coordinate A6 contains atom 4 which is already in QM block.
 Coordinate A6 contains atom 1 which is already in QM block.
 Coordinate A6 contains atom 1 which is already in QM block.
 Coordinate A7 contains atom 1 which is already in QM block.
 Coordinate A7 contains atom 5 which is already in QM block.
 Coordinate A7 contains atom 5 which is already in QM block.
 Coordinate A8 contains atom 1 which is already in QM block.
 Coordinate A8 contains atom 5 which is already in QM block.
 Coordinate A8 contains atom 5 which is already in QM block.
 Coordinate A9 contains atom 1 which is already in QM block.
 Coordinate A9 contains atom 5 which is already in QM block.
 Coordinate A9 contains atom 5 which is already in QM block.
 Coordinate A10 contains atom 6 which is already in QM block.
 Coordinate A10 contains atom 5 which is already in QM block.
 Coordinate A10 contains atom 5 which is already in QM block.
 Coordinate A11 contains atom 6 which is already in QM block.
 Coordinate A11 contains atom 5 which is already in QM block.
 Coordinate A11 contains atom 5 which is already in QM block.
 Coordinate A12 contains atom 7 which is already in QM block.
 Coordinate A12 contains atom 5 which is already in QM block.
 Coordinate A12 contains atom 5 which is already in QM block.
 Coordinate D1 contains atom 2 which is already in QM block.
 Coordinate D1 contains atom 1 which is already in QM block.
 Coordinate D1 contains atom 5 which is already in QM block.
 Coordinate D1 contains atom 6 which is already in QM block.
 Coordinate D2 contains atom 2 which is already in QM block.
 Coordinate D2 contains atom 1 which is already in QM block.
 Coordinate D2 contains atom 5 which is already in QM block.
 Coordinate D2 contains atom 7 which is already in QM block.
 Coordinate D3 contains atom 2 which is already in QM block.
 Coordinate D3 contains atom 1 which is already in QM block.
 Coordinate D3 contains atom 5 which is already in QM block.
 Coordinate D3 contains atom 8 which is already in QM block.
 Coordinate D4 contains atom 3 which is already in QM block.
 Coordinate D4 contains atom 1 which is already in QM block.
 Coordinate D4 contains atom 5 which is already in QM block.
 Coordinate D4 contains atom 6 which is already in QM block.
 Coordinate D5 contains atom 3 which is already in QM block.
 Coordinate D5 contains atom 1 which is already in QM block.
 Coordinate D5 contains atom 5 which is already in QM block.
 Coordinate D5 contains atom 7 which is already in QM block.
 Coordinate D6 contains atom 3 which is already in QM block.
 Coordinate D6 contains atom 1 which is already in QM block.
 Coordinate D6 contains atom 5 which is already in QM block.
 Coordinate D6 contains atom 8 which is already in QM block.
 Coordinate D7 contains atom 4 which is already in QM block.
 Coordinate D7 contains atom 1 which is already in QM block.
 Coordinate D7 contains atom 5 which is already in QM block.
 Coordinate D7 contains atom 6 which is already in QM block.
 Coordinate D8 contains atom 4 which is already in QM block.
 Coordinate D8 contains atom 1 which is already in QM block.
 Coordinate D8 contains atom 5 which is already in QM block.
 Coordinate D8 contains atom 7 which is already in QM block.
 Coordinate D9 contains atom 4 which is already in QM block.
 Coordinate D9 contains atom 1 which is already in QM block.
 Coordinate D9 contains atom 5 which is already in QM block.
 Coordinate D9 contains atom 8 which is already in QM block.
 Saved connectivity
 I=     1 IAn=  6 IBond, RBType=     2  1.00     3  1.00     4  1.00     5  1.00
 I=     2 IAn=  1 IBond, RBType=     1  1.00
 I=     3 IAn=  1 IBond, RBType=     1  1.00
 I=     4 IAn=  1 IBond, RBType=     1  1.00
 I=     5 IAn= 14 IBond, RBType=     1  1.00     6  1.00     7  1.00     8  1.00
 I=     6 IAn=  1 IBond, RBType=     5  1.00
 I=     7 IAn=  1 IBond, RBType=     5  1.00
 I=     8 IAn=  1 IBond, RBType=     5  1.00
 ITRead=  0  0  0  0  0  0  0  0
 MicOpt= -1 -1 -1 -1 -1 -1 -1 -1
 NAtoms=      8 NQM=        8 NQMF=       0 NMMI=      0 NMMIF=      0
                NMic=       0 NMicF=      0.
 No MM parameters found.
 Leave Link  101 at Sat Aug 10 16:32:25 2019, MaxMem=  4294967296 cpu:               5.6 elap:               0.5

 GradGradGradGradGradGradGradGradGradGradGradGradGradGradGradGradGradGrad
 Berny optimization.
 GetPCM: File not found, return IValue=0.
 Optmz: redundant internal coordinate code flag= 1
 Initialization pass.
                           ----------------------------
                           !    Initial Parameters    !
                           ! (Angstroms and Degrees)  !
 --------------------------                            --------------------------
 ! Name  Definition              Value          Derivative Info.                !
 --------------------------------------------------------------------------------
 ! R1    R(1,2)                  1.0944         calculate D2E/DX2 analytically  !
 ! R2    R(1,3)                  1.0944         calculate D2E/DX2 analytically  !
 ! R3    R(1,4)                  1.0944         calculate D2E/DX2 analytically  !
 ! R4    R(1,5)                  1.8882         calculate D2E/DX2 analytically  !
 ! R5    R(5,6)                  1.4885         calculate D2E/DX2 analytically  !
 ! R6    R(5,7)                  1.4885         calculate D2E/DX2 analytically  !
 ! R7    R(5,8)                  1.4885         calculate D2E/DX2 analytically  !
 ! A1    A(2,1,3)              107.9738         calculate D2E/DX2 analytically  !
 ! A2    A(2,1,4)              107.9737         calculate D2E/DX2 analytically  !
 ! A3    A(2,1,5)              110.9301         calculate D2E/DX2 analytically  !
 ! A4    A(3,1,4)              107.9737         calculate D2E/DX2 analytically  !
 ! A5    A(3,1,5)              110.9301         calculate D2E/DX2 analytically  !
 ! A6    A(4,1,5)              110.9301         calculate D2E/DX2 analytically  !
 ! A7    A(1,5,6)              110.8299         calculate D2E/DX2 analytically  !
 ! A8    A(1,5,7)              110.8299         calculate D2E/DX2 analytically  !
 ! A9    A(1,5,8)              110.8299         calculate D2E/DX2 analytically  !
 ! A10   A(6,5,7)              108.079          calculate D2E/DX2 analytically  !
 ! A11   A(6,5,8)              108.079          calculate D2E/DX2 analytically  !
 ! A12   A(7,5,8)              108.079          calculate D2E/DX2 analytically  !
 ! D1    D(2,1,5,6)             60.0            calculate D2E/DX2 analytically  !
 ! D2    D(2,1,5,7)           -180.0            calculate D2E/DX2 analytically  !
 ! D3    D(2,1,5,8)            -60.0            calculate D2E/DX2 analytically  !
 ! D4    D(3,1,5,6)            -60.0            calculate D2E/DX2 analytically  !
 ! D5    D(3,1,5,7)             60.0            calculate D2E/DX2 analytically  !
 ! D6    D(3,1,5,8)            180.0            calculate D2E/DX2 analytically  !
 ! D7    D(4,1,5,6)            180.0            calculate D2E/DX2 analytically  !
 ! D8    D(4,1,5,7)            -60.0            calculate D2E/DX2 analytically  !
 ! D9    D(4,1,5,8)             60.0            calculate D2E/DX2 analytically  !
 --------------------------------------------------------------------------------
 Maximum allowed force set to 1.00D+20.
 Trust Radius=3.00D-01 FncErr=1.00D-07 GrdErr=1.00D-07 EigMax=2.50D+02 EigMin=1.00D-04
 Number of steps in this run=      2 maximum allowed number of steps=      2.
 GradGradGradGradGradGradGradGradGradGradGradGradGradGradGradGradGradGrad

 Leave Link  103 at Sat Aug 10 16:32:25 2019, MaxMem=  4294967296 cpu:               0.2 elap:               0.2
                          Input orientation:                          
 ---------------------------------------------------------------------
 Center     Atomic      Atomic             Coordinates (Angstroms)
 Number     Number       Type             X           Y           Z
 ---------------------------------------------------------------------
      1          6           0        0.000000    0.000000   -1.250541
      2          1           0        0.885269    0.511110   -1.641505
      3          1           0       -0.885269    0.511110   -1.641505
      4          1           0        0.000000   -1.022221   -1.641505
      5         14           0        0.000000    0.000000    0.637636
      6          1           0        0.000000    1.391243    1.166951
      7          1           0       -1.204852   -0.695622    1.166951
      8          1           0        1.204852   -0.695622    1.166951
 ---------------------------------------------------------------------
                    Distance matrix (angstroms):
                    1          2          3          4          5
     1  C    0.000000
     2  H    1.094435   0.000000
     3  H    1.094435   1.770538   0.000000
     4  H    1.094435   1.770538   1.770538   0.000000
     5  Si   1.888177   2.497883   2.497883   2.497883   0.000000
     6  H    2.789234   3.073396   3.073396   3.703003   1.488533
     7  H    2.789234   3.703003   3.073396   3.073396   1.488534
     8  H    2.789234   3.073396   3.703003   3.073396   1.488534
                    6          7          8
     6  H    0.000000
     7  H    2.409704   0.000000
     8  H    2.409704   2.409704   0.000000
 Stoichiometry    CH6Si
 Framework group  C3[C3(CSi),X(H6)]
 Deg. of freedom     6
 Full point group                 C3      NOp   3
 Largest Abelian subgroup         C1      NOp   1
 Largest concise Abelian subgroup C1      NOp   1
                         Standard orientation:                         
 ---------------------------------------------------------------------
 Center     Atomic      Atomic             Coordinates (Angstroms)
 Number     Number       Type             X           Y           Z
 ---------------------------------------------------------------------
      1          6           0        0.000000   -0.000000   -1.250541
      2          1           0       -0.511110    0.885269   -1.641505
      3          1           0       -0.511110   -0.885269   -1.641505
      4          1           0        1.022220   -0.000000   -1.641505
      5         14           0        0.000000   -0.000000    0.637636
      6          1           0       -1.391243    0.000000    1.166951
      7          1           0        0.695622   -1.204852    1.166951
      8          1           0        0.695622    1.204852    1.166951
 ---------------------------------------------------------------------
 Rotational constants (GHZ):          56.0819156          10.7829107          10.7829107
 Standard basis: 6-31G(d,p) (6D, 7F)
 There are    64 symmetry adapted cartesian basis functions of A   symmetry.
 There are    64 symmetry adapted basis functions of A   symmetry.
    64 basis functions,   122 primitive gaussians,    64 cartesian basis functions
    13 alpha electrons       13 beta electrons
       nuclear repulsion energy        62.5060286630 Hartrees.
 NAtoms=    8 NActive=    8 NUniq=    4 SFac= 4.00D+00 NAtFMM=   60 NAOKFM=F Big=F
 Integral buffers will be    131072 words long.
 Raffenetti 2 integral format.
 Two-electron integral symmetry is turned on.
 One-electron integrals computed using PRISM.
 NBasis=    64 RedAO= T EigKep=  8.87D-03  NBF=    64
 NBsUse=    64 1.00D-06 EigRej= -1.00D+00 NBFU=    64
 ExpMin= 7.78D-02 ExpMax= 1.61D+04 ExpMxC= 2.43D+03 IAcc=3 IRadAn=         5 AccDes= 0.00D+00
 Harris functional with IExCor=  402 and IRadAn=       5 diagonalized for initial guess.
 HarFok:  IExCor=  402 AccDes= 0.00D+00 IRadAn=         5 IDoV= 1 UseB2=F ITyADJ=14
 ICtDFT=  3500011 ScaDFX=  1.000000  1.000000  1.000000  1.000000
 FoFCou: FMM=F IPFlag=           0 FMFlag=      100000 FMFlg1=           0
         NFxFlg=           0 DoJE=T BraDBF=F KetDBF=T FulRan=T
         wScrn=  0.000000 ICntrl=       500 IOpCl=  0 I1Cent=   200000004 NGrid=           0
         NMat0=    1 NMatS0=      1 NMatT0=    0 NMatD0=    1 NMtDS0=    0 NMtDT0=    0
 Petite list used in FoFCou.
 Initial guess orbital symmetries:
       Occupied  (A) (A) (A) (E) (E) (A) (A) (A) (E) (E) (A) (E)
                 (E)
       Virtual   (A) (E) (E) (A) (E) (E) (A) (E) (E) (A) (A) (E)
                 (E) (A) (E) (E) (E) (E) (A) (E) (E) (A) (A) (E)
                 (E) (A) (E) (E) (A) (A) (A) (E) (E) (E) (E) (A)
                 (E) (E) (E) (E) (A) (A) (E) (E) (E) (E) (A) (A)
                 (E) (E) (A)
 The electronic state of the initial guess is 1-A.
 Keep R1 ints in memory in canonical form, NReq=16392515.
 Requested convergence on RMS density matrix=1.00D-08 within 128 cycles.
 Requested convergence on MAX density matrix=1.00D-06.
 Requested convergence on             energy=1.00D-06.
 No special actions if energy rises.
 Integral accuracy reduced to 1.0D-05 until final iterations.
 Initial convergence to 1.0D-05 achieved.  Increase integral accuracy.
 SCF Done:  E(RB3LYP) =  -331.218764694     A.U. after   11 cycles
            NFock= 11  Conv=0.21D-08     -V/T= 2.0046
 DoSCS=F DFT=T ScalE2(SS,OS)=  1.000000  1.000000
 Range of M.O.s used for correlation:     1    64
 NBasis=    64 NAE=    13 NBE=    13 NFC=     0 NFV=     0
 NROrb=     64 NOA=    13 NOB=    13 NVA=    51 NVB=    51
 Symmetrizing basis deriv contribution to polar:
 IMax=3 JMax=2 DiffMx= 0.00D+00
 G2DrvN: will do     9 centers at a time, making    1 passes.
 Calling FoFCou, ICntrl=  3107 FMM=F I1Cent=   0 AccDes= 0.00D+00.
 End of G2Drv F.D. properties file   721 does not exist.
 End of G2Drv F.D. properties file   722 does not exist.
 End of G2Drv F.D. properties file   788 does not exist.
          IDoAtm=11111111
          Differentiating once with respect to electric field.
                with respect to dipole field.
          Differentiating once with respect to nuclear coordinates.
 Keep R1 ints in memory in canonical form, NReq=16343915.
          There are    15 degrees of freedom in the 1st order CPHF.  IDoFFX=4 NUNeed=    15.
     15 vectors produced by pass  0 Test12= 4.42D-15 6.67D-09 XBig12= 2.42D+01 3.01D+00.
 AX will form    15 AO Fock derivatives at one time.
     15 vectors produced by pass  1 Test12= 4.42D-15 6.67D-09 XBig12= 4.75D-01 2.47D-01.
     15 vectors produced by pass  2 Test12= 4.42D-15 6.67D-09 XBig12= 5.57D-03 2.58D-02.
     15 vectors produced by pass  3 Test12= 4.42D-15 6.67D-09 XBig12= 1.36D-05 1.01D-03.
     15 vectors produced by pass  4 Test12= 4.42D-15 6.67D-09 XBig12= 1.61D-08 3.47D-05.
      8 vectors produced by pass  5 Test12= 4.42D-15 6.67D-09 XBig12= 1.05D-11 6.91D-07.
      3 vectors produced by pass  6 Test12= 4.42D-15 6.67D-09 XBig12= 5.76D-15 1.41D-08.
 InvSVY:  IOpt=1 It=  1 EMax= 4.44D-15
 Solved reduced A of dimension    86 with    15 vectors.
 Isotropic polarizability for W=    0.000000       33.64 Bohr**3.
 End of Minotr F.D. properties file   721 does not exist.
 End of Minotr F.D. properties file   722 does not exist.
 End of Minotr F.D. properties file   788 does not exist.

 **********************************************************************

            Population analysis using the SCF Density.

 **********************************************************************

 Orbital symmetries:
       Occupied  (A) (A) (A) (E) (E) (A) (A) (A) (E) (E) (E) (E)
                 (A)
       Virtual   (A) (E) (E) (A) (A) (E) (E) (E) (E) (A) (A) (E)
                 (E) (A) (E) (E) (E) (E) (A) (E) (E) (A) (A) (E)
                 (E) (A) (E) (E) (A) (A) (A) (E) (E) (E) (E) (A)
                 (E) (E) (E) (E) (A) (A) (E) (E) (E) (E) (A) (A)
                 (E) (E) (A)
 The electronic state is 1-A.
 Alpha  occ. eigenvalues --  -66.12072 -10.17446  -5.27251  -3.63090  -3.63090
 Alpha  occ. eigenvalues --   -3.63038  -0.69914  -0.51819  -0.40941  -0.40941
 Alpha  occ. eigenvalues --   -0.33290  -0.33290  -0.32389
 Alpha virt. eigenvalues --    0.03977   0.07808   0.07808   0.13258   0.14385
 Alpha virt. eigenvalues --    0.14524   0.14524   0.25318   0.25318   0.26506
 Alpha virt. eigenvalues --    0.33369   0.49949   0.49949   0.57599   0.67418
 Alpha virt. eigenvalues --    0.67418   0.73003   0.73003   0.82536   0.86295
 Alpha virt. eigenvalues --    0.86295   0.93185   1.07341   1.14899   1.14899
 Alpha virt. eigenvalues --    1.19978   1.47251   1.47251   1.98942   2.04111
 Alpha virt. eigenvalues --    2.06055   2.06977   2.06977   2.08643   2.08643
 Alpha virt. eigenvalues --    2.20881   2.21918   2.21918   2.34486   2.34486
 Alpha virt. eigenvalues --    2.51912   2.66163   2.75311   2.75311   2.83291
 Alpha virt. eigenvalues --    2.83291   3.07634   3.17514   3.41767   3.41767
 Alpha virt. eigenvalues --    4.39407
          Condensed to atoms (all electrons):
               1          2          3          4          5          6
     1  C    5.061805   0.378918   0.378918   0.378917   0.388304  -0.018028
     2  H    0.378918   0.566229  -0.022728  -0.022728  -0.028077  -0.000792
     3  H    0.378918  -0.022728   0.566229  -0.022728  -0.028077  -0.000792
     4  H    0.378917  -0.022728  -0.022728   0.566229  -0.028077   0.001169
     5  Si   0.388304  -0.028077  -0.028077  -0.028077  12.091533   0.386968
     6  H   -0.018028  -0.000792  -0.000792   0.001169   0.386968   0.762883
     7  H   -0.018028   0.001169  -0.000792  -0.000792   0.386969  -0.016186
     8  H   -0.018028  -0.000792   0.001169  -0.000792   0.386969  -0.016186
               7          8
     1  C   -0.018028  -0.018028
     2  H    0.001169  -0.000792
     3  H   -0.000792   0.001169
     4  H   -0.000792  -0.000792
     5  Si   0.386969   0.386969
     6  H   -0.016186  -0.016186
     7  H    0.762883  -0.016186
     8  H   -0.016186   0.762883
 Mulliken charges:
               1
     1  C   -0.532777
     2  H    0.128800
     3  H    0.128800
     4  H    0.128800
     5  Si   0.443487
     6  H   -0.099037
     7  H   -0.099037
     8  H   -0.099037
 Sum of Mulliken charges =  -0.00000
 Mulliken charges with hydrogens summed into heavy atoms:
               1
     1  C   -0.146377
     5  Si   0.146377
 APT charges:
               1
     1  C   -0.277455
     2  H    0.007706
     3  H    0.007706
     4  H    0.007709
     5  Si   1.091546
     6  H   -0.279068
     7  H   -0.279071
     8  H   -0.279071
 Sum of APT charges =   0.00000
 APT charges with hydrogens summed into heavy atoms:
               1
     1  C   -0.254333
     5  Si   0.254336
 Electronic spatial extent (au):  <R**2>=            180.0444
 Charge=             -0.0000 electrons
 Dipole moment (field-independent basis, Debye):
    X=              0.0000    Y=              0.0000    Z=             -0.8010  Tot=              0.8010
 Quadrupole moment (field-independent basis, Debye-Ang):
   XX=            -22.7596   YY=            -22.7596   ZZ=            -22.8397
   XY=              0.0000   XZ=              0.0000   YZ=              0.0000
 Traceless Quadrupole moment (field-independent basis, Debye-Ang):
   XX=              0.0267   YY=              0.0267   ZZ=             -0.0534
   XY=              0.0000   XZ=              0.0000   YZ=              0.0000
 Octapole moment (field-independent basis, Debye-Ang**2):
  XXX=              1.5028  YYY=              0.0000  ZZZ=             -3.1266  XYY=             -1.5028
  XXY=             -0.0000  XXZ=             -2.8968  XZZ=             -0.0000  YZZ=             -0.0000
  YYZ=             -2.8968  XYZ=             -0.0000
 Hexadecapole moment (field-independent basis, Debye-Ang**3):
 XXXX=            -54.2778 YYYY=            -54.2778 ZZZZ=           -171.1340 XXXY=              0.0000
 XXXZ=             -0.4594 YYYX=             -0.0000 YYYZ=             -0.0000 ZZZX=             -0.0000
 ZZZY=              0.0000 XXYY=            -18.0926 XXZZ=            -37.3609 YYZZ=            -37.3609
 XXYZ=              0.0000 YYXZ=              0.4594 ZZXY=              0.0000
 N-N= 6.250602866301D+01 E-N=-9.096936330938D+02  KE= 3.296886502742D+02
  Exact polarizability:  32.005  -0.000  32.005   0.000   0.000  36.922
 Approx polarizability:  43.510   0.000  43.510   0.000   0.000  44.795
 Calling FoFJK, ICntrl=    100127 FMM=F ISym2X=1 I1Cent= 0 IOpClX= 0 NMat=1 NMatS=1 NMatT=0.
 Full mass-weighted force constant matrix:
 Low frequencies ---   -0.0626   -0.0483   -0.0032    9.2541    9.2640   28.5870
 Low frequencies ---  196.4467  522.5675  522.5772
 Diagonal vibrational polarizability:
        5.3686180       5.3683586       7.6613516
 Harmonic frequencies (cm**-1), IR intensities (KM/Mole), Raman scattering
 activities (A**4/AMU), depolarization ratios for plane and unpolarized
 incident light, reduced masses (AMU), force constants (mDyne/A),
 and normal coordinates:
                           1         2         3         4         5
                           A         E         E         A         E
       Frequencies ---   196.4299  522.5675  522.5772  688.6063  899.8288
    Reduced masses ---     1.0078    1.0445    1.0445    3.9796    1.3171
   Force constants ---     0.0229    0.1681    0.1681    1.1118    0.6283
    IR Intensities ---     0.0000    8.5751    8.5746    8.9498   67.7479
 Coord Atom Element:
   1     1     6         -0.00000  -0.01108  -0.00000  -0.00000  -0.14114
   2     1     6          0.00000   0.00000  -0.01108   0.00000  -0.00001
   3     1     6          0.00000   0.00000  -0.00000   0.41467  -0.00000
   1     2     1         -0.40293   0.18228   0.01623  -0.00386   0.20292
   2     2     1         -0.23263   0.01623   0.16354   0.00668   0.05299
   3     2     1         -0.00000  -0.20557   0.35606   0.45066  -0.31076
   1     3     1          0.40293   0.18228  -0.01623  -0.00387   0.20291
   2     3     1         -0.23263  -0.01623   0.16354  -0.00668  -0.05297
   3     3     1          0.00000  -0.20556  -0.35606   0.45066  -0.31084
   1     4     1          0.00000   0.15417   0.00000   0.00771   0.11115
   2     4     1          0.46526   0.00000   0.19165  -0.00000   0.00002
   3     4     1          0.00000   0.41114   0.00000   0.45064   0.62160
   1     5    14         -0.00000  -0.03620   0.00000   0.00000   0.05787
   2     5    14         -0.00000  -0.00000  -0.03620  -0.00000   0.00001
   3     5    14         -0.00000  -0.00000   0.00000  -0.20027   0.00000
   1     6     1          0.00001   0.19500   0.00001  -0.01782  -0.09943
   2     6     1          0.34186   0.00002   0.21703  -0.00000  -0.00013
   3     6     1          0.00000   0.59249  -0.00000  -0.24330  -0.38684
   1     7     1         -0.29606   0.21154   0.00952   0.00890  -0.17182
   2     7     1         -0.17092   0.00954   0.20050  -0.01543  -0.04179
   3     7     1          0.00000  -0.29625   0.51311  -0.24326   0.19340
   1     8     1          0.29605   0.21151  -0.00955   0.00889  -0.17170
   2     8     1         -0.17093  -0.00954   0.20052   0.01543   0.04175
   3     8     1          0.00000  -0.29625  -0.51311  -0.24326   0.19340
                           6         7         8         9        10
                           E         A         E         E         A
       Frequencies ---   899.8334  951.7451  963.8816  963.8863 1315.5210
    Reduced masses ---     1.3171    1.1118    1.0316    1.0316    1.2251
   Force constants ---     0.6283    0.5933    0.5647    0.5647    1.2491
    IR Intensities ---    67.7508  220.6741   44.5794   44.5752   12.2168
 Coord Atom Element:
   1     1     6          0.00001  -0.00000  -0.01125  -0.00002  -0.00000
   2     1     6         -0.14114  -0.00000   0.00002  -0.01125   0.00000
   3     1     6          0.00000   0.00218   0.00000   0.00000  -0.14027
   1     2     1          0.05296  -0.00451   0.00197  -0.00334  -0.11642
   2     2     1          0.14173   0.00782  -0.00338   0.00587   0.20165
   3     2     1          0.53834   0.03285  -0.02662   0.04601   0.52137
   1     3     1         -0.05299  -0.00452   0.00198   0.00338  -0.11642
   2     3     1          0.14174  -0.00782   0.00335   0.00586  -0.20165
   3     3     1         -0.53829   0.03285  -0.02652  -0.04606   0.52137
   1     4     1         -0.00001   0.00903   0.00780   0.00001   0.23284
   2     4     1          0.23350  -0.00000  -0.00002   0.00004  -0.00000
   3     4     1         -0.00005   0.03287   0.05315   0.00006   0.52137
   1     5    14         -0.00001   0.00000  -0.02879   0.00001  -0.00000
   2     5    14          0.05787   0.00000  -0.00001  -0.02879  -0.00000
   3     5    14         -0.00000  -0.06207  -0.00000  -0.00000   0.00599
   1     6     1         -0.00001   0.21680  -0.13029  -0.00000  -0.01786
   2     6     1         -0.19589  -0.00000   0.00004   0.74455  -0.00000
   3     6     1          0.00000   0.53281  -0.30298  -0.00006  -0.02010
   1     7     1         -0.04169  -0.10842   0.52585   0.37879   0.00893
   2     7     1         -0.12348   0.18774   0.37884   0.08840  -0.01547
   3     7     1         -0.33501   0.53281   0.15157  -0.26238  -0.02010
   1     8     1          0.04187  -0.10842   0.52582  -0.37885   0.00893
   2     8     1         -0.12360  -0.18773  -0.37882   0.08843   0.01547
   3     8     1          0.33501   0.53281   0.15146   0.26244  -0.02010
                          11        12        13        14        15
                           E         E         A         E         E
       Frequencies ---  1479.8083 1479.8112 2227.2100 2229.1634 2229.1700
    Reduced masses ---     1.0490    1.0490    1.0200    1.0509    1.0509
   Force constants ---     1.3535    1.3535    2.9811    3.0767    3.0767
    IR Intensities ---     2.7709    2.7709   72.2784  169.8163  169.7955
 Coord Atom Element:
   1     1     6         -0.06065   0.00000   0.00000  -0.00015   0.00000
   2     1     6         -0.00000  -0.06065   0.00000  -0.00000  -0.00015
   3     1     6          0.00000   0.00000  -0.00113  -0.00000  -0.00000
   1     2     1          0.50309   0.38707  -0.00168  -0.00193   0.00210
   2     2     1          0.38707   0.05612   0.00293   0.00211  -0.00436
   3     2     1          0.16410  -0.28424   0.00596  -0.00254   0.00442
   1     3     1          0.50308  -0.38708  -0.00169  -0.00193  -0.00210
   2     3     1         -0.38707   0.05613  -0.00292  -0.00211  -0.00436
   3     3     1          0.16410   0.28424   0.00596  -0.00254  -0.00442
   1     4     1         -0.16735   0.00000   0.00339  -0.00556   0.00000
   2     4     1          0.00000   0.72656  -0.00000  -0.00000  -0.00071
   3     4     1         -0.32821   0.00000   0.00595   0.00511  -0.00000
   1     5    14         -0.00537   0.00000   0.00007  -0.03995  -0.00000
   2     5    14         -0.00000  -0.00537  -0.00000   0.00000  -0.03995
   3     5    14         -0.00000  -0.00000   0.02125   0.00004   0.00000
   1     6     1          0.00185  -0.00000   0.54070   0.76254   0.00000
   2     6     1         -0.00000   0.01979  -0.00000  -0.00002  -0.01462
   3     6     1          0.01336  -0.00000  -0.19754  -0.29271   0.00000
   1     7     1          0.01530   0.00777  -0.27139   0.17888  -0.33606
   2     7     1          0.00777   0.00633   0.47012  -0.33517   0.56747
   3     7     1         -0.00667   0.01157  -0.19836   0.14578  -0.25316
   1     8     1          0.01530  -0.00777  -0.27140   0.17889   0.33608
   2     8     1         -0.00777   0.00633  -0.47012   0.33516   0.56746
   3     8     1         -0.00668  -0.01156  -0.19836   0.14578   0.25316
                          16        17        18
                           A         E         E
       Frequencies ---  3049.6236 3131.4386 3131.4394
    Reduced masses ---     1.0343    1.1014    1.1014
   Force constants ---     5.6677    6.3633    6.3633
    IR Intensities ---     5.2765    9.7923    9.7925
 Coord Atom Element:
   1     1     6         -0.00000  -0.09226  -0.00000
   2     1     6          0.00000   0.00000  -0.09226
   3     1     6          0.04911  -0.00000   0.00000
   1     2     1         -0.27213   0.17476  -0.33654
   2     2     1          0.47135  -0.33658   0.56334
   3     2     1         -0.19053   0.14708  -0.25473
   1     3     1         -0.27213   0.17473   0.33656
   2     3     1         -0.47135   0.33652   0.56337
   3     3     1         -0.19053   0.14706   0.25474
   1     4     1          0.54427   0.75766   0.00004
   2     4     1         -0.00000   0.00000  -0.01956
   3     4     1         -0.19052  -0.29414  -0.00002
   1     5    14          0.00000  -0.00067  -0.00000
   2     5    14          0.00000   0.00000  -0.00067
   3     5    14         -0.00060  -0.00000  -0.00000
   1     6     1         -0.00024   0.00544   0.00000
   2     6     1         -0.00000   0.00000   0.00110
   3     6     1          0.00118  -0.00335  -0.00000
   1     7     1          0.00012   0.00219  -0.00188
   2     7     1         -0.00021  -0.00188   0.00435
   3     7     1          0.00118   0.00168  -0.00290
   1     8     1          0.00012   0.00219   0.00188
   2     8     1          0.00021   0.00188   0.00435
   3     8     1          0.00118   0.00168   0.00290
 Harmonic frequencies (cm**-1), IR intensities (KM/Mole), Raman scattering
 activities (A**4/AMU), depolarization ratios for plane and unpolarized
 incident light, reduced masses (AMU), force constants (mDyne/A),
 and normal coordinates:
                      1                      2                      3
                      A                      E                      E
 Frequencies --    196.4299               522.5675               522.5772
 Red. masses --      1.0078                 1.0445                 1.0445
 Frc consts  --      0.0229                 0.1681                 0.1681
 IR Inten    --      0.0000                 8.5751                 8.5746
  Atom  AN      X      Y      Z        X      Y      Z        X      Y      Z
     1   6    -0.00   0.00   0.00    -0.01   0.00   0.00    -0.00  -0.01  -0.00
     2   1    -0.40  -0.23  -0.00     0.18   0.02  -0.21     0.02   0.16   0.36
     3   1     0.40  -0.23   0.00     0.18  -0.02  -0.21    -0.02   0.16  -0.36
     4   1     0.00   0.47   0.00     0.15   0.00   0.41     0.00   0.19   0.00
     5  14    -0.00  -0.00  -0.00    -0.04  -0.00  -0.00     0.00  -0.04   0.00
     6   1     0.00   0.34   0.00     0.20   0.00   0.59     0.00   0.22  -0.00
     7   1    -0.30  -0.17   0.00     0.21   0.01  -0.30     0.01   0.20   0.51
     8   1     0.30  -0.17   0.00     0.21  -0.01  -0.30    -0.01   0.20  -0.51
                      4                      5                      6
                      A                      E                      E
 Frequencies --    688.6063               899.8288               899.8334
 Red. masses --      3.9796                 1.3171                 1.3171
 Frc consts  --      1.1118                 0.6283                 0.6283
 IR Inten    --      8.9498                67.7479                67.7508
  Atom  AN      X      Y      Z        X      Y      Z        X      Y      Z
     1   6    -0.00   0.00   0.41    -0.14  -0.00  -0.00     0.00  -0.14   0.00
     2   1    -0.00   0.01   0.45     0.20   0.05  -0.31     0.05   0.14   0.54
     3   1    -0.00  -0.01   0.45     0.20  -0.05  -0.31    -0.05   0.14  -0.54
     4   1     0.01  -0.00   0.45     0.11   0.00   0.62    -0.00   0.23  -0.00
     5  14     0.00  -0.00  -0.20     0.06   0.00   0.00    -0.00   0.06  -0.00
     6   1    -0.02  -0.00  -0.24    -0.10  -0.00  -0.39    -0.00  -0.20   0.00
     7   1     0.01  -0.02  -0.24    -0.17  -0.04   0.19    -0.04  -0.12  -0.34
     8   1     0.01   0.02  -0.24    -0.17   0.04   0.19     0.04  -0.12   0.34
                      7                      8                      9
                      A                      E                      E
 Frequencies --    951.7451               963.8816               963.8863
 Red. masses --      1.1118                 1.0316                 1.0316
 Frc consts  --      0.5933                 0.5647                 0.5647
 IR Inten    --    220.6741                44.5794                44.5752
  Atom  AN      X      Y      Z        X      Y      Z        X      Y      Z
     1   6    -0.00  -0.00   0.00    -0.01   0.00   0.00    -0.00  -0.01   0.00
     2   1    -0.00   0.01   0.03     0.00  -0.00  -0.03    -0.00   0.01   0.05
     3   1    -0.00  -0.01   0.03     0.00   0.00  -0.03     0.00   0.01  -0.05
     4   1     0.01  -0.00   0.03     0.01  -0.00   0.05     0.00   0.00   0.00
     5  14     0.00   0.00  -0.06    -0.03  -0.00  -0.00     0.00  -0.03  -0.00
     6   1     0.22  -0.00   0.53    -0.13   0.00  -0.30    -0.00   0.74  -0.00
     7   1    -0.11   0.19   0.53     0.53   0.38   0.15     0.38   0.09  -0.26
     8   1    -0.11  -0.19   0.53     0.53  -0.38   0.15    -0.38   0.09   0.26
                     10                     11                     12
                      A                      E                      E
 Frequencies --   1315.5210              1479.8083              1479.8112
 Red. masses --      1.2251                 1.0490                 1.0490
 Frc consts  --      1.2491                 1.3535                 1.3535
 IR Inten    --     12.2168                 2.7709                 2.7709
  Atom  AN      X      Y      Z        X      Y      Z        X      Y      Z
     1   6    -0.00   0.00  -0.14    -0.06  -0.00   0.00     0.00  -0.06   0.00
     2   1    -0.12   0.20   0.52     0.50   0.39   0.16     0.39   0.06  -0.28
     3   1    -0.12  -0.20   0.52     0.50  -0.39   0.16    -0.39   0.06   0.28
     4   1     0.23  -0.00   0.52    -0.17   0.00  -0.33     0.00   0.73   0.00
     5  14    -0.00  -0.00   0.01    -0.01  -0.00  -0.00     0.00  -0.01  -0.00
     6   1    -0.02  -0.00  -0.02     0.00  -0.00   0.01    -0.00   0.02  -0.00
     7   1     0.01  -0.02  -0.02     0.02   0.01  -0.01     0.01   0.01   0.01
     8   1     0.01   0.02  -0.02     0.02  -0.01  -0.01    -0.01   0.01  -0.01
                     13                     14                     15
                      A                      E                      E
 Frequencies --   2227.2100              2229.1634              2229.1700
 Red. masses --      1.0200                 1.0509                 1.0509
 Frc consts  --      2.9811                 3.0767                 3.0767
 IR Inten    --     72.2784               169.8163               169.7955
  Atom  AN      X      Y      Z        X      Y      Z        X      Y      Z
     1   6     0.00   0.00  -0.00    -0.00  -0.00  -0.00     0.00  -0.00  -0.00
     2   1    -0.00   0.00   0.01    -0.00   0.00  -0.00     0.00  -0.00   0.00
     3   1    -0.00  -0.00   0.01    -0.00  -0.00  -0.00    -0.00  -0.00  -0.00
     4   1     0.00  -0.00   0.01    -0.01  -0.00   0.01     0.00  -0.00  -0.00
     5  14     0.00  -0.00   0.02    -0.04   0.00   0.00    -0.00  -0.04   0.00
     6   1     0.54  -0.00  -0.20     0.76  -0.00  -0.29     0.00  -0.01   0.00
     7   1    -0.27   0.47  -0.20     0.18  -0.34   0.15    -0.34   0.57  -0.25
     8   1    -0.27  -0.47  -0.20     0.18   0.34   0.15     0.34   0.57   0.25
                     16                     17                     18
                      A                      E                      E
 Frequencies --   3049.6236              3131.4386              3131.4394
 Red. masses --      1.0343                 1.1014                 1.1014
 Frc consts  --      5.6677                 6.3633                 6.3633
 IR Inten    --      5.2765                 9.7923                 9.7925
  Atom  AN      X      Y      Z        X      Y      Z        X      Y      Z
     1   6    -0.00   0.00   0.05    -0.09   0.00  -0.00    -0.00  -0.09   0.00
     2   1    -0.27   0.47  -0.19     0.17  -0.34   0.15    -0.34   0.56  -0.25
     3   1    -0.27  -0.47  -0.19     0.17   0.34   0.15     0.34   0.56   0.25
     4   1     0.54  -0.00  -0.19     0.76   0.00  -0.29     0.00  -0.02  -0.00
     5  14     0.00   0.00  -0.00    -0.00   0.00  -0.00    -0.00  -0.00  -0.00
     6   1    -0.00  -0.00   0.00     0.01   0.00  -0.00     0.00   0.00  -0.00
     7   1     0.00  -0.00   0.00     0.00  -0.00   0.00    -0.00   0.00  -0.00
     8   1     0.00   0.00   0.00     0.00   0.00   0.00     0.00   0.00   0.00

 -------------------
 - Thermochemistry -
 -------------------
 Temperature   298.150 Kelvin.  Pressure   1.00000 Atm.
 Atom     1 has atomic number  6 and mass  12.00000
 Atom     2 has atomic number  1 and mass   1.00783
 Atom     3 has atomic number  1 and mass   1.00783
 Atom     4 has atomic number  1 and mass   1.00783
 Atom     5 has atomic number 14 and mass  27.97693
 Atom     6 has atomic number  1 and mass   1.00783
 Atom     7 has atomic number  1 and mass   1.00783
 Atom     8 has atomic number  1 and mass   1.00783
 Molecular mass:    46.02388 amu.
 Principal axes and moments of inertia in atomic units:
                           1         2         3
     Eigenvalues --    32.18045 167.37050 167.37050
           X            0.00000   0.79624  -0.60498
           Y            0.00000   0.60498   0.79624
           Z            1.00000   0.00000  -0.00000
 This molecule is a prolate symmetric top.
 Rotational symmetry number  3.
 Rotational temperatures (Kelvin)      2.69151     0.51750     0.51750
 Rotational constants (GHZ):          56.08192    10.78291    10.78291
 Zero-point vibrational energy     160793.3 (Joules/Mol)
                                   38.43052 (Kcal/Mol)
 Warning -- explicit consideration of   3 degrees of freedom as
           vibrations may cause significant error
 Vibrational temperatures:    282.62   751.86   751.87   990.75  1294.65
          (Kelvin)           1294.66  1369.35  1386.81  1386.82  1892.74
                             2129.11  2129.12  3204.46  3207.27  3207.28
                             4387.73  4505.44  4505.44
 
 Zero-point correction=                           0.061243 (Hartree/Particle)
 Thermal correction to Energy=                    0.065434
 Thermal correction to Enthalpy=                  0.066378
 Thermal correction to Gibbs Free Energy=         0.037393
 Sum of electronic and zero-point Energies=           -331.157522
 Sum of electronic and thermal Energies=              -331.153331
 Sum of electronic and thermal Enthalpies=            -331.152387
 Sum of electronic and thermal Free Energies=         -331.181372
 
                     E (Thermal)             CV                S
                      KCal/Mol        Cal/Mol-Kelvin    Cal/Mol-Kelvin
 Total                   41.060             13.645             61.005
 Electronic               0.000              0.000              0.000
 Translational            0.889              2.981             37.405
 Rotational               0.889              2.981             19.244
 Vibrational             39.283              7.683              4.356
 Vibration     1          0.636              1.845              2.166
 Vibration     2          0.878              1.200              0.604
 Vibration     3          0.878              1.200              0.604
                       Q            Log10(Q)             Ln(Q)
 Total Bot       0.631766D-17        -17.199444        -39.603183
 Total V=0       0.933956D+11         10.970326         25.260110
 Vib (Bot)       0.143690D-27        -27.842572        -64.109891
 Vib (Bot)    1  0.101647D+01          0.007094          0.016335
 Vib (Bot)    2  0.308158D+00         -0.511227         -1.177143
 Vib (Bot)    3  0.308149D+00         -0.511239         -1.177171
 Vib (V=0)       0.212421D+01          0.327198          0.753402
 Vib (V=0)    1  0.163279D+01          0.212930          0.490289
 Vib (V=0)    2  0.108733D+01          0.036363          0.083729
 Vib (V=0)    3  0.108733D+01          0.036361          0.083725
 Electronic      0.100000D+01          0.000000          0.000000
 Translational   0.122724D+08          7.088929         16.322862
 Rotational      0.358261D+04          3.554199          8.183846
                           ----------------------------
                           ! Normal Mode     1        !
 --------------------------                            --------------------------
 ! Name  Definition              Value          Relative Weight (%)             !
 --------------------------------------------------------------------------------
 ! R1    R(1,2)                  0.0                     0.0                    !
 ! R2    R(1,3)                  0.0                     0.0                    !
 ! R3    R(1,4)                  0.0                     0.0                    !
 ! R4    R(1,5)                  0.0                     0.0                    !
 ! R5    R(5,6)                  0.0                     0.0                    !
 ! R6    R(5,7)                  0.0                     0.0                    !
 ! R7    R(5,8)                  0.0                     0.0                    !
 ! A1    A(2,1,3)                0.0                     0.0                    !
 ! A2    A(2,1,4)                0.0                     0.0                    !
 ! A3    A(2,1,5)                0.0                     0.0                    !
 ! A4    A(3,1,4)                0.0                     0.0                    !
 ! A5    A(3,1,5)                0.0                     0.0                    !
 ! A6    A(4,1,5)                0.0                     0.0                    !
 ! A7    A(1,5,6)                0.0                     0.0                    !
 ! A8    A(1,5,7)                0.0                     0.0                    !
 ! A9    A(1,5,8)                0.0                     0.0                    !
 ! A10   A(6,5,7)                0.0                     0.0                    !
 ! A11   A(6,5,8)                0.0                     0.0                    !
 ! A12   A(7,5,8)                0.0                     0.0                    !
 ! D1    D(2,1,5,6)             -0.3709                 11.1                    !
 ! D2    D(2,1,5,7)             -0.3709                 11.1                    !
 ! D3    D(2,1,5,8)             -0.3709                 11.1                    !
 ! D4    D(3,1,5,6)             -0.3709                 11.1                    !
 ! D5    D(3,1,5,7)             -0.3709                 11.1                    !
 ! D6    D(3,1,5,8)             -0.3709                 11.1                    !
 ! D7    D(4,1,5,6)             -0.3709                 11.1                    !
 ! D8    D(4,1,5,7)             -0.3709                 11.1                    !
 ! D9    D(4,1,5,8)             -0.3709                 11.1                    !
 --------------------------------------------------------------------------------
                           ----------------------------
                           ! Normal Mode     2        !
 --------------------------                            --------------------------
 ! Name  Definition              Value          Relative Weight (%)             !
 --------------------------------------------------------------------------------
 ! R1    R(1,2)                 -0.0037                  0.2                    !
 ! R2    R(1,3)                 -0.0037                  0.2                    !
 ! R3    R(1,4)                  0.0075                  0.4                    !
 ! R4    R(1,5)                  0.0                     0.0                    !
 ! R5    R(5,6)                 -0.0054                  0.3                    !
 ! R6    R(5,7)                  0.0027                  0.2                    !
 ! R7    R(5,8)                  0.0027                  0.2                    !
 ! A1    A(2,1,3)                0.0317                  1.9                    !
 ! A2    A(2,1,4)               -0.0158                  0.9                    !
 ! A3    A(2,1,5)                0.1036                  6.1                    !
 ! A4    A(3,1,4)               -0.0158                  0.9                    !
 ! A5    A(3,1,5)                0.1036                  6.1                    !
 ! A6    A(4,1,5)               -0.2072                 12.2                    !
 ! A7    A(1,5,6)                0.2331                 13.7                    !
 ! A8    A(1,5,7)               -0.1166                  6.9                    !
 ! A9    A(1,5,8)               -0.1166                  6.9                    !
 ! A10   A(6,5,7)                0.0071                  0.4                    !
 ! A11   A(6,5,8)                0.0071                  0.4                    !
 ! A12   A(7,5,8)               -0.0142                  0.8                    !
 ! D1    D(2,1,5,6)              0.0885                  5.2                    !
 ! D2    D(2,1,5,7)              0.1743                 10.2                    !
 ! D3    D(2,1,5,8)              0.0028                  0.2                    !
 ! D4    D(3,1,5,6)             -0.0886                  5.2                    !
 ! D5    D(3,1,5,7)             -0.0028                  0.2                    !
 ! D6    D(3,1,5,8)             -0.1743                 10.2                    !
 ! D7    D(4,1,5,6)              0.0                     0.0                    !
 ! D8    D(4,1,5,7)              0.0857                  5.0                    !
 ! D9    D(4,1,5,8)             -0.0857                  5.0                    !
 --------------------------------------------------------------------------------
                           ----------------------------
                           ! Normal Mode     3        !
 --------------------------                            --------------------------
 ! Name  Definition              Value          Relative Weight (%)             !
 --------------------------------------------------------------------------------
 ! R1    R(1,2)                  0.0065                  0.4                    !
 ! R2    R(1,3)                 -0.0065                  0.4                    !
 ! R3    R(1,4)                  0.0                     0.0                    !
 ! R4    R(1,5)                  0.0                     0.0                    !
 ! R5    R(5,6)                  0.0                     0.0                    !
 ! R6    R(5,7)                 -0.0047                  0.3                    !
 ! R7    R(5,8)                  0.0047                  0.3                    !
 ! A1    A(2,1,3)                0.0                     0.0                    !
 ! A2    A(2,1,4)               -0.0274                  1.6                    !
 ! A3    A(2,1,5)               -0.1794                 10.7                    !
 ! A4    A(3,1,4)                0.0274                  1.6                    !
 ! A5    A(3,1,5)                0.1794                 10.7                    !
 ! A6    A(4,1,5)                0.0                     0.0                    !
 ! A7    A(1,5,6)                0.0                     0.0                    !
 ! A8    A(1,5,7)                0.2019                 12.1                    !
 ! A9    A(1,5,8)               -0.2019                 12.1                    !
 ! A10   A(6,5,7)                0.0123                  0.7                    !
 ! A11   A(6,5,8)               -0.0123                  0.7                    !
 ! A12   A(7,5,8)                0.0                     0.0                    !
 ! D1    D(2,1,5,6)             -0.0479                  2.9                    !
 ! D2    D(2,1,5,7)              0.1006                  6.0                    !
 ! D3    D(2,1,5,8)              0.1006                  6.0                    !
 ! D4    D(3,1,5,6)             -0.0479                  2.9                    !
 ! D5    D(3,1,5,7)              0.1006                  6.0                    !
 ! D6    D(3,1,5,8)              0.1006                  6.0                    !
 ! D7    D(4,1,5,6)             -0.2013                 12.1                    !
 ! D8    D(4,1,5,7)             -0.0528                  3.2                    !
 ! D9    D(4,1,5,8)             -0.0527                  3.2                    !
 --------------------------------------------------------------------------------
                           ----------------------------
                           ! Normal Mode     4        !
 --------------------------                            --------------------------
 ! Name  Definition              Value          Relative Weight (%)             !
 --------------------------------------------------------------------------------
 ! R1    R(1,2)                 -0.0056                  0.7                    !
 ! R2    R(1,3)                 -0.0056                  0.7                    !
 ! R3    R(1,4)                 -0.0057                  0.7                    !
 ! R4    R(1,5)                 -0.6149                 72.7                    !
 ! R5    R(5,6)                  0.0014                  0.2                    !
 ! R6    R(5,7)                  0.0014                  0.2                    !
 ! R7    R(5,8)                  0.0014                  0.2                    !
 ! A1    A(2,1,3)                0.0185                  2.2                    !
 ! A2    A(2,1,4)                0.0185                  2.2                    !
 ! A3    A(2,1,5)               -0.0176                  2.1                    !
 ! A4    A(3,1,4)                0.0185                  2.2                    !
 ! A5    A(3,1,5)               -0.0176                  2.1                    !
 ! A6    A(4,1,5)               -0.0176                  2.1                    !
 ! A7    A(1,5,6)               -0.0166                  2.0                    !
 ! A8    A(1,5,7)               -0.0165                  2.0                    !
 ! A9    A(1,5,8)               -0.0165                  2.0                    !
 ! A10   A(6,5,7)                0.0173                  2.1                    !
 ! A11   A(6,5,8)                0.0173                  2.1                    !
 ! A12   A(7,5,8)                0.0173                  2.1                    !
 ! D1    D(2,1,5,6)              0.0                     0.0                    !
 ! D2    D(2,1,5,7)              0.0                     0.0                    !
 ! D3    D(2,1,5,8)              0.0                     0.0                    !
 ! D4    D(3,1,5,6)              0.0                     0.0                    !
 ! D5    D(3,1,5,7)              0.0                     0.0                    !
 ! D6    D(3,1,5,8)              0.0                     0.0                    !
 ! D7    D(4,1,5,6)              0.0                     0.0                    !
 ! D8    D(4,1,5,7)              0.0                     0.0                    !
 ! D9    D(4,1,5,8)              0.0                     0.0                    !
 --------------------------------------------------------------------------------
                           ----------------------------
                           ! Normal Mode     5        !
 --------------------------                            --------------------------
 ! Name  Definition              Value          Relative Weight (%)             !
 --------------------------------------------------------------------------------
 ! R1    R(1,2)                 -0.0068                  0.2                    !
 ! R2    R(1,3)                 -0.0068                  0.2                    !
 ! R3    R(1,4)                  0.0136                  0.5                    !
 ! R4    R(1,5)                  0.0                     0.0                    !
 ! R5    R(5,6)                  0.0095                  0.3                    !
 ! R6    R(5,7)                 -0.0047                  0.2                    !
 ! R7    R(5,8)                 -0.0047                  0.2                    !
 ! A1    A(2,1,3)                0.0962                  3.4                    !
 ! A2    A(2,1,4)               -0.0481                  1.7                    !
 ! A3    A(2,1,5)                0.19                    6.7                    !
 ! A4    A(3,1,4)               -0.0481                  1.7                    !
 ! A5    A(3,1,5)                0.1901                  6.7                    !
 ! A6    A(4,1,5)               -0.3801                 13.4                    !
 ! A7    A(1,5,6)               -0.2042                  7.2                    !
 ! A8    A(1,5,7)                0.1021                  3.6                    !
 ! A9    A(1,5,8)                0.1021                  3.6                    !
 ! A10   A(6,5,7)               -0.0277                  1.0                    !
 ! A11   A(6,5,8)               -0.0275                  1.0                    !
 ! A12   A(7,5,8)                0.0552                  1.9                    !
 ! D1    D(2,1,5,6)              0.1865                  6.6                    !
 ! D2    D(2,1,5,7)              0.0845                  3.0                    !
 ! D3    D(2,1,5,8)              0.2884                 10.2                    !
 ! D4    D(3,1,5,6)             -0.1864                  6.6                    !
 ! D5    D(3,1,5,7)             -0.2884                 10.2                    !
 ! D6    D(3,1,5,8)             -0.0845                  3.0                    !
 ! D7    D(4,1,5,6)              0.0                     0.0                    !
 ! D8    D(4,1,5,7)             -0.102                   3.6                    !
 ! D9    D(4,1,5,8)              0.1019                  3.6                    !
 --------------------------------------------------------------------------------
                           ----------------------------
                           ! Normal Mode     6        !
 --------------------------                            --------------------------
 ! Name  Definition              Value          Relative Weight (%)             !
 --------------------------------------------------------------------------------
 ! R1    R(1,2)                  0.0118                  0.5                    !
 ! R2    R(1,3)                 -0.0118                  0.5                    !
 ! R3    R(1,4)                  0.0                     0.0                    !
 ! R4    R(1,5)                  0.0                     0.0                    !
 ! R5    R(5,6)                  0.0                     0.0                    !
 ! R6    R(5,7)                  0.0082                  0.3                    !
 ! R7    R(5,8)                 -0.0082                  0.3                    !
 ! A1    A(2,1,3)                0.0                     0.0                    !
 ! A2    A(2,1,4)               -0.0833                  3.2                    !
 ! A3    A(2,1,5)               -0.3292                 12.6                    !
 ! A4    A(3,1,4)                0.0833                  3.2                    !
 ! A5    A(3,1,5)                0.3291                 12.6                    !
 ! A6    A(4,1,5)                0.0                     0.0                    !
 ! A7    A(1,5,6)                0.0                     0.0                    !
 ! A8    A(1,5,7)               -0.1768                  6.8                    !
 ! A9    A(1,5,8)                0.1768                  6.8                    !
 ! A10   A(6,5,7)               -0.0478                  1.8                    !
 ! A11   A(6,5,8)                0.0479                  1.8                    !
 ! A12   A(7,5,8)               -0.0001                  0.0                    !
 ! D1    D(2,1,5,6)              0.2254                  8.6                    !
 ! D2    D(2,1,5,7)              0.0488                  1.9                    !
 ! D3    D(2,1,5,8)              0.0487                  1.9                    !
 ! D4    D(3,1,5,6)              0.2254                  8.6                    !
 ! D5    D(3,1,5,7)              0.0488                  1.9                    !
 ! D6    D(3,1,5,8)              0.0487                  1.9                    !
 ! D7    D(4,1,5,6)             -0.0975                  3.7                    !
 ! D8    D(4,1,5,7)             -0.2741                 10.5                    !
 ! D9    D(4,1,5,8)             -0.2742                 10.5                    !
 --------------------------------------------------------------------------------
                           ----------------------------
                           ! Normal Mode     7        !
 --------------------------                            --------------------------
 ! Name  Definition              Value          Relative Weight (%)             !
 --------------------------------------------------------------------------------
 ! R1    R(1,2)                 -0.0025                  0.2                    !
 ! R2    R(1,3)                 -0.0025                  0.2                    !
 ! R3    R(1,4)                 -0.0025                  0.2                    !
 ! R4    R(1,5)                 -0.0642                  4.1                    !
 ! R5    R(5,6)                  0.0089                  0.6                    !
 ! R6    R(5,7)                  0.0089                  0.6                    !
 ! R7    R(5,8)                  0.0089                  0.6                    !
 ! A1    A(2,1,3)                0.0162                  1.0                    !
 ! A2    A(2,1,4)                0.0162                  1.0                    !
 ! A3    A(2,1,5)               -0.0154                  1.0                    !
 ! A4    A(3,1,4)                0.0162                  1.0                    !
 ! A5    A(3,1,5)               -0.0154                  1.0                    !
 ! A6    A(4,1,5)               -0.0154                  1.0                    !
 ! A7    A(1,5,6)                0.2251                 14.3                    !
 ! A8    A(1,5,7)                0.2251                 14.3                    !
 ! A9    A(1,5,8)                0.2251                 14.3                    !
 ! A10   A(6,5,7)               -0.2361                 15.0                    !
 ! A11   A(6,5,8)               -0.2361                 15.0                    !
 ! A12   A(7,5,8)               -0.236                  15.0                    !
 ! D1    D(2,1,5,6)              0.0                     0.0                    !
 ! D2    D(2,1,5,7)              0.0                     0.0                    !
 ! D3    D(2,1,5,8)              0.0                     0.0                    !
 ! D4    D(3,1,5,6)              0.0                     0.0                    !
 ! D5    D(3,1,5,7)              0.0                     0.0                    !
 ! D6    D(3,1,5,8)              0.0                     0.0                    !
 ! D7    D(4,1,5,6)              0.0                     0.0                    !
 ! D8    D(4,1,5,7)              0.0                     0.0                    !
 ! D9    D(4,1,5,8)              0.0                     0.0                    !
 --------------------------------------------------------------------------------
                           ----------------------------
                           ! Normal Mode     8        !
 --------------------------                            --------------------------
 ! Name  Definition              Value          Relative Weight (%)             !
 --------------------------------------------------------------------------------
 ! R1    R(1,2)                  0.0006                  0.0                    !
 ! R2    R(1,3)                  0.0006                  0.0                    !
 ! R3    R(1,4)                 -0.0012                  0.0                    !
 ! R4    R(1,5)                  0.0                     0.0                    !
 ! R5    R(5,6)                 -0.0129                  0.5                    !
 ! R6    R(5,7)                  0.0064                  0.2                    !
 ! R7    R(5,8)                  0.0064                  0.2                    !
 ! A1    A(2,1,3)               -0.0063                  0.2                    !
 ! A2    A(2,1,4)                0.0032                  0.1                    !
 ! A3    A(2,1,5)                0.0112                  0.4                    !
 ! A4    A(3,1,4)                0.0032                  0.1                    !
 ! A5    A(3,1,5)                0.0112                  0.4                    !
 ! A6    A(4,1,5)               -0.0224                  0.8                    !
 ! A7    A(1,5,6)               -0.1086                  3.9                    !
 ! A8    A(1,5,7)                0.0543                  2.0                    !
 ! A9    A(1,5,8)                0.0543                  2.0                    !
 ! A10   A(6,5,7)                0.2325                  8.4                    !
 ! A11   A(6,5,8)                0.2325                  8.4                    !
 ! A12   A(7,5,8)               -0.465                  16.7                    !
 ! D1    D(2,1,5,6)              0.0034                  0.1                    !
 ! D2    D(2,1,5,7)              0.2598                  9.4                    !
 ! D3    D(2,1,5,8)             -0.2529                  9.1                    !
 ! D4    D(3,1,5,6)             -0.0035                  0.1                    !
 ! D5    D(3,1,5,7)              0.2529                  9.1                    !
 ! D6    D(3,1,5,8)             -0.2598                  9.4                    !
 ! D7    D(4,1,5,6)              0.0                     0.0                    !
 ! D8    D(4,1,5,7)              0.2564                  9.2                    !
 ! D9    D(4,1,5,8)             -0.2563                  9.2                    !
 --------------------------------------------------------------------------------
                           ----------------------------
                           ! Normal Mode     9        !
 --------------------------                            --------------------------
 ! Name  Definition              Value          Relative Weight (%)             !
 --------------------------------------------------------------------------------
 ! R1    R(1,2)                 -0.001                   0.0                    !
 ! R2    R(1,3)                  0.001                   0.0                    !
 ! R3    R(1,4)                  0.0                     0.0                    !
 ! R4    R(1,5)                  0.0                     0.0                    !
 ! R5    R(5,6)                  0.0                     0.0                    !
 ! R6    R(5,7)                 -0.0111                  0.4                    !
 ! R7    R(5,8)                  0.0112                  0.4                    !
 ! A1    A(2,1,3)                0.0                     0.0                    !
 ! A2    A(2,1,4)                0.0055                  0.2                    !
 ! A3    A(2,1,5)               -0.0194                  0.7                    !
 ! A4    A(3,1,4)               -0.0055                  0.2                    !
 ! A5    A(3,1,5)                0.0194                  0.7                    !
 ! A6    A(4,1,5)                0.0                     0.0                    !
 ! A7    A(1,5,6)                0.0                     0.0                    !
 ! A8    A(1,5,7)               -0.094                   3.3                    !
 ! A9    A(1,5,8)                0.0941                  3.3                    !
 ! A10   A(6,5,7)                0.4027                 14.2                    !
 ! A11   A(6,5,8)               -0.4027                 14.2                    !
 ! A12   A(7,5,8)                0.0                     0.0                    !
 ! D1    D(2,1,5,6)             -0.294                  10.3                    !
 ! D2    D(2,1,5,7)              0.15                    5.3                    !
 ! D3    D(2,1,5,8)              0.15                    5.3                    !
 ! D4    D(3,1,5,6)             -0.2941                 10.3                    !
 ! D5    D(3,1,5,7)              0.15                    5.3                    !
 ! D6    D(3,1,5,8)              0.15                    5.3                    !
 ! D7    D(4,1,5,6)             -0.3                    10.5                    !
 ! D8    D(4,1,5,7)              0.144                   5.1                    !
 ! D9    D(4,1,5,8)              0.1441                  5.1                    !
 --------------------------------------------------------------------------------
                           ----------------------------
                           ! Normal Mode    10        !
 --------------------------                            --------------------------
 ! Name  Definition              Value          Relative Weight (%)             !
 --------------------------------------------------------------------------------
 ! R1    R(1,2)                 -0.0189                  0.8                    !
 ! R2    R(1,3)                 -0.0189                  0.8                    !
 ! R3    R(1,4)                 -0.0189                  0.8                    !
 ! R4    R(1,5)                  0.1463                  6.1                    !
 ! R5    R(5,6)                  0.0074                  0.3                    !
 ! R6    R(5,7)                  0.0074                  0.3                    !
 ! R7    R(5,8)                  0.0074                  0.3                    !
 ! A1    A(2,1,3)                0.3568                 15.0                    !
 ! A2    A(2,1,4)                0.3568                 15.0                    !
 ! A3    A(2,1,5)               -0.339                  14.2                    !
 ! A4    A(3,1,4)                0.3568                 15.0                    !
 ! A5    A(3,1,5)               -0.339                  14.2                    !
 ! A6    A(4,1,5)               -0.339                  14.2                    !
 ! A7    A(1,5,6)               -0.0109                  0.5                    !
 ! A8    A(1,5,7)               -0.0109                  0.5                    !
 ! A9    A(1,5,8)               -0.0109                  0.5                    !
 ! A10   A(6,5,7)                0.0115                  0.5                    !
 ! A11   A(6,5,8)                0.0115                  0.5                    !
 ! A12   A(7,5,8)                0.0115                  0.5                    !
 ! D1    D(2,1,5,6)              0.0                     0.0                    !
 ! D2    D(2,1,5,7)              0.0                     0.0                    !
 ! D3    D(2,1,5,8)              0.0                     0.0                    !
 ! D4    D(3,1,5,6)              0.0                     0.0                    !
 ! D5    D(3,1,5,7)              0.0                     0.0                    !
 ! D6    D(3,1,5,8)              0.0                     0.0                    !
 ! D7    D(4,1,5,6)              0.0                     0.0                    !
 ! D8    D(4,1,5,7)              0.0                     0.0                    !
 ! D9    D(4,1,5,8)              0.0                     0.0                    !
 --------------------------------------------------------------------------------
                           ----------------------------
                           ! Normal Mode    11        !
 --------------------------                            --------------------------
 ! Name  Definition              Value          Relative Weight (%)             !
 --------------------------------------------------------------------------------
 ! R1    R(1,2)                 -0.0088                  0.2                    !
 ! R2    R(1,3)                 -0.0088                  0.2                    !
 ! R3    R(1,4)                  0.0176                  0.5                    !
 ! R4    R(1,5)                  0.0                     0.0                    !
 ! R5    R(5,6)                 -0.002                   0.1                    !
 ! R6    R(5,7)                  0.001                   0.0                    !
 ! R7    R(5,8)                  0.001                   0.0                    !
 ! A1    A(2,1,3)                0.6483                 16.9                    !
 ! A2    A(2,1,4)               -0.3242                  8.5                    !
 ! A3    A(2,1,5)               -0.0756                  2.0                    !
 ! A4    A(3,1,4)               -0.3242                  8.5                    !
 ! A5    A(3,1,5)               -0.0756                  2.0                    !
 ! A6    A(4,1,5)                0.1512                  3.9                    !
 ! A7    A(1,5,6)               -0.0101                  0.3                    !
 ! A8    A(1,5,7)                0.0051                  0.1                    !
 ! A9    A(1,5,8)                0.0051                  0.1                    !
 ! A10   A(6,5,7)                0.0052                  0.1                    !
 ! A11   A(6,5,8)                0.0052                  0.1                    !
 ! A12   A(7,5,8)               -0.0104                  0.3                    !
 ! D1    D(2,1,5,6)              0.3581                  9.3                    !
 ! D2    D(2,1,5,7)              0.3612                  9.4                    !
 ! D3    D(2,1,5,8)              0.3549                  9.3                    !
 ! D4    D(3,1,5,6)             -0.3581                  9.3                    !
 ! D5    D(3,1,5,7)             -0.3549                  9.3                    !
 ! D6    D(3,1,5,8)             -0.3612                  9.4                    !
 ! D7    D(4,1,5,6)              0.0                     0.0                    !
 ! D8    D(4,1,5,7)              0.0032                  0.1                    !
 ! D9    D(4,1,5,8)             -0.0032                  0.1                    !
 --------------------------------------------------------------------------------
                           ----------------------------
                           ! Normal Mode    12        !
 --------------------------                            --------------------------
 ! Name  Definition              Value          Relative Weight (%)             !
 --------------------------------------------------------------------------------
 ! R1    R(1,2)                  0.0152                  0.4                    !
 ! R2    R(1,3)                 -0.0152                  0.4                    !
 ! R3    R(1,4)                  0.0                     0.0                    !
 ! R4    R(1,5)                  0.0                     0.0                    !
 ! R5    R(5,6)                  0.0                     0.0                    !
 ! R6    R(5,7)                 -0.0017                  0.0                    !
 ! R7    R(5,8)                  0.0017                  0.0                    !
[...]
      9   0.000000D+00  0.000000D+00  0.237623D+00  0.237623D+00  0.000000D+00
     10   0.000000D+00  0.000000D+00  0.000000D+00  0.000000D+00  0.000000D+00
     11   0.000000D+00  0.000000D+00  0.000000D+00  0.000000D+00  0.000000D+00
     12   0.000000D+00  0.000000D+00  0.000000D+00  0.000000D+00  0.000000D+00
                11            12            13            14            15 
      1   0.126881D+00  0.149585D+00  0.000000D+00  0.000000D+00  0.242711D+00
      2   0.401528D+00 -0.863631D-01  0.172726D+00 -0.280258D+00  0.140129D+00
      3   0.237623D+00 -0.451612D+00 -0.451612D+00  0.000000D+00  0.000000D+00
      4  -0.538054D+00 -0.392296D+00  0.000000D+00  0.000000D+00 -0.352189D+00
      5  -0.310646D+00  0.226492D+00 -0.452984D+00  0.406673D+00 -0.203337D+00
      6  -0.475245D+00  0.451612D+00  0.451612D+00 -0.332267D+00 -0.332267D+00
      7   0.411174D+00  0.242711D+00  0.000000D+00  0.000000D+00  0.109478D+00
      8  -0.908825D-01 -0.140129D+00  0.280258D+00 -0.126415D+00  0.632074D-01
      9   0.237623D+00  0.000000D+00  0.000000D+00  0.332267D+00  0.332267D+00
     10   0.000000D+00  0.000000D+00  0.000000D+00  0.000000D+00  0.000000D+00
     11   0.000000D+00  0.000000D+00  0.000000D+00  0.000000D+00  0.000000D+00
     12   0.000000D+00  0.000000D+00  0.000000D+00  0.000000D+00  0.000000D+00
                16            17            18            19            20 
      1  -0.242711D+00  0.302696D+00 -0.302696D+00 -0.208761D+00  0.258837D+00
      2   0.140129D+00  0.662946D-01  0.662946D-01  0.228995D+00 -0.448319D+00
      3   0.000000D+00 -0.174248D+00 -0.174248D+00 -0.174248D+00  0.000000D+00
      4   0.352189D+00 -0.396631D+00  0.396631D+00  0.000000D+00 -0.419059D+00
      5  -0.203337D+00  0.228995D+00  0.228995D+00 -0.457990D+00  0.541148D+00
      6  -0.332267D+00  0.348495D+00  0.348495D+00  0.348495D+00  0.000000D+00
      7  -0.109478D+00  0.939351D-01 -0.939351D-01  0.208761D+00  0.540585D+00
      8   0.632074D-01 -0.295290D+00 -0.295290D+00  0.228995D+00 -0.928285D-01
      9   0.332267D+00 -0.174248D+00 -0.174248D+00 -0.174248D+00  0.000000D+00
     10   0.000000D+00  0.000000D+00  0.000000D+00  0.000000D+00 -0.380363D+00
     11   0.000000D+00  0.000000D+00  0.000000D+00  0.000000D+00  0.000000D+00
     12   0.000000D+00  0.000000D+00  0.000000D+00  0.000000D+00  0.000000D+00
                21            22            23            24            25 
      1   0.258837D+00  0.258837D+00  0.258837D+00  0.258837D+00  0.258837D+00
      2  -0.448319D+00 -0.448319D+00  0.448319D+00  0.448319D+00  0.448319D+00
      3   0.000000D+00  0.000000D+00  0.000000D+00  0.000000D+00  0.000000D+00
      4  -0.259118D+00 -0.259118D+00 -0.419059D+00 -0.259118D+00 -0.259118D+00
      5   0.448805D+00  0.633490D+00 -0.541147D+00 -0.633490D+00 -0.448805D+00
      6   0.000000D+00  0.000000D+00  0.000000D+00  0.000000D+00  0.000000D+00
      7  -0.189901D+00 -0.189901D+00  0.540585D+00 -0.189901D+00 -0.189901D+00
      8   0.328918D+00 -0.514575D+00  0.928285D-01  0.514575D+00 -0.328918D+00
      9   0.000000D+00  0.000000D+00  0.000000D+00  0.000000D+00  0.000000D+00
     10   0.190181D+00  0.190181D+00 -0.380363D+00  0.190181D+00  0.190181D+00
     11  -0.329404D+00  0.329404D+00  0.000000D+00 -0.329404D+00  0.329404D+00
     12   0.000000D+00  0.000000D+00  0.000000D+00  0.000000D+00  0.000000D+00
                26            27            28 
      1  -0.517674D+00 -0.517674D+00 -0.517674D+00
      2   0.000000D+00  0.000000D+00  0.000000D+00
      3   0.000000D+00  0.000000D+00  0.000000D+00
      4   0.518236D+00  0.678177D+00  0.678177D+00
      5   0.000000D+00 -0.923423D-01  0.923421D-01
      6   0.000000D+00  0.000000D+00  0.000000D+00
      7   0.379801D+00 -0.350684D+00 -0.350684D+00
      8   0.000000D+00  0.421746D+00 -0.421746D+00
      9   0.000000D+00  0.000000D+00  0.000000D+00
     10  -0.380363D+00  0.190181D+00  0.190181D+00
     11   0.000000D+00 -0.329404D+00  0.329404D+00
     12   0.000000D+00  0.000000D+00  0.000000D+00
 Iteration  1 RMS(Cart)=  0.00026979 RMS(Int)=  0.00000011
 Iteration  2 RMS(Cart)=  0.00000011 RMS(Int)=  0.00000005
 Input Coordinates in SymCor: 
                 1             2             3             4             5 
      1   0.000000D+00  0.167242D+01 -0.167242D+01  0.000000D+00  0.000000D+00
      2   0.194366D-04  0.965558D+00  0.965559D+00 -0.193115D+01  0.231029D-04
      3  -0.236255D+01 -0.310214D+01 -0.310214D+01 -0.310203D+01  0.120554D+01
                 6             7             8 
      1   0.000000D+00 -0.227683D+01  0.227683D+01
      2   0.262906D+01 -0.131454D+01 -0.131454D+01
      3   0.220498D+01  0.220489D+01  0.220489D+01
 Symmetrized Coordinates in SymCor: 
                 1             2             3             4             5 
      1   0.000000D+00 -0.965558D+00 -0.965579D+00  0.193114D+01  0.000000D+00
      2   0.000000D+00  0.167242D+01 -0.167241D+01 -0.121144D-04  0.000000D+00
      3  -0.236255D+01 -0.310214D+01 -0.310214D+01 -0.310214D+01  0.120554D+01
                 6             7             8 
      1  -0.262906D+01  0.131453D+01  0.131453D+01
      2   0.000000D+00 -0.227683D+01  0.227683D+01
      3   0.220498D+01  0.220498D+01  0.220498D+01
 Final Coordinates in SymCor: 
                 1             2             3             4             5 
      1   0.000000D+00  0.167242D+01 -0.167241D+01 -0.121144D-04  0.000000D+00
      2   0.000000D+00  0.965558D+00  0.965579D+00 -0.193114D+01  0.000000D+00
      3  -0.236255D+01 -0.310214D+01 -0.310214D+01 -0.310214D+01  0.120554D+01
                 6             7             8 
      1   0.000000D+00 -0.227683D+01  0.227683D+01
      2   0.262906D+01 -0.131453D+01 -0.131453D+01
      3   0.220498D+01  0.220498D+01  0.220498D+01
 ClnCor:  largest displacement from symmetrization is 1.04D-04 for atom     4.
 Variable       Old X    -DE/DX   Delta X   Delta X   Delta X     New X
                                 (Linear)    (Quad)   (Total)
    R1        2.06818  -0.00011   0.00000  -0.00028  -0.00027   2.06792
    R2        2.06818  -0.00011   0.00000  -0.00028  -0.00027   2.06792
    R3        2.06818  -0.00011   0.00000  -0.00028  -0.00027   2.06792
    R4        3.56814   0.00000   0.00000  -0.00004  -0.00004   3.56809
    R5        2.81292  -0.00006   0.00000  -0.00032  -0.00030   2.81262
    R6        2.81292  -0.00006   0.00000  -0.00032  -0.00030   2.81262
    R7        2.81292  -0.00006   0.00000  -0.00032  -0.00030   2.81262
    A1        1.88450  -0.00005   0.00000  -0.00045  -0.00047   1.88403
    A2        1.88450  -0.00005   0.00000  -0.00046  -0.00047   1.88403
    A3        1.93610   0.00005   0.00000   0.00045   0.00045   1.93654
    A4        1.88450  -0.00005   0.00000  -0.00046  -0.00047   1.88403
    A5        1.93610   0.00005   0.00000   0.00045   0.00045   1.93654
    A6        1.93610   0.00005   0.00000   0.00040   0.00045   1.93654
    A7        1.93435  -0.00003   0.00000  -0.00027  -0.00027   1.93408
    A8        1.93435  -0.00003   0.00000  -0.00030  -0.00027   1.93408
    A9        1.93435  -0.00003   0.00000  -0.00030  -0.00027   1.93408
   A10        1.88633   0.00003   0.00000   0.00031   0.00028   1.88662
   A11        1.88633   0.00003   0.00000   0.00031   0.00028   1.88662
   A12        1.88633   0.00003   0.00000   0.00030   0.00028   1.88662
    D1        1.04720   0.00000   0.00000   0.00001   0.00001   1.04720
    D2       -3.14159   0.00000   0.00000   0.00003   0.00001  -3.14159
    D3       -1.04720  -0.00000   0.00000   0.00000   0.00001  -1.04719
    D4       -1.04720  -0.00000   0.00000  -0.00001   0.00001  -1.04719
    D5        1.04720   0.00000   0.00000  -0.00000   0.00001   1.04720
    D6       -3.14159  -0.00000   0.00000  -0.00003   0.00001  -3.14159
    D7       -3.14159   0.00000   0.00000   0.00000   0.00001  -3.14159
    D8       -1.04720   0.00000   0.00000   0.00001   0.00001  -1.04719
    D9        1.04720  -0.00000   0.00000  -0.00001   0.00001   1.04720
         Item               Value     Threshold  Converged?
 Maximum Force            0.000107     0.000450     YES
 RMS     Force            0.000048     0.000300     YES
 Maximum Displacement     0.000627     0.001800     YES
 RMS     Displacement     0.000265     0.001200     YES
 Predicted change in Energy=-1.675884D-07
 Optimization completed.
    -- Stationary point found.
                           ----------------------------
                           !   Optimized Parameters   !
                           ! (Angstroms and Degrees)  !
 --------------------------                            --------------------------
 ! Name  Definition              Value          Derivative Info.                !
 --------------------------------------------------------------------------------
 ! R1    R(1,2)                  1.0944         -DE/DX =   -0.0001              !
 ! R2    R(1,3)                  1.0944         -DE/DX =   -0.0001              !
 ! R3    R(1,4)                  1.0944         -DE/DX =   -0.0001              !
 ! R4    R(1,5)                  1.8882         -DE/DX =    0.0                 !
 ! R5    R(5,6)                  1.4885         -DE/DX =   -0.0001              !
 ! R6    R(5,7)                  1.4885         -DE/DX =   -0.0001              !
 ! R7    R(5,8)                  1.4885         -DE/DX =   -0.0001              !
 ! A1    A(2,1,3)              107.9737         -DE/DX =   -0.0001              !
 ! A2    A(2,1,4)              107.9737         -DE/DX =   -0.0001              !
 ! A3    A(2,1,5)              110.9301         -DE/DX =    0.0001              !
 ! A4    A(3,1,4)              107.9737         -DE/DX =   -0.0001              !
 ! A5    A(3,1,5)              110.9301         -DE/DX =    0.0001              !
 ! A6    A(4,1,5)              110.9301         -DE/DX =    0.0                 !
 ! A7    A(1,5,6)              110.8299         -DE/DX =    0.0                 !
 ! A8    A(1,5,7)              110.8299         -DE/DX =    0.0                 !
 ! A9    A(1,5,8)              110.8299         -DE/DX =    0.0                 !
 ! A10   A(6,5,7)              108.079          -DE/DX =    0.0                 !
 ! A11   A(6,5,8)              108.079          -DE/DX =    0.0                 !
 ! A12   A(7,5,8)              108.079          -DE/DX =    0.0                 !
 ! D1    D(2,1,5,6)             60.0            -DE/DX =    0.0                 !
 ! D2    D(2,1,5,7)           -180.0            -DE/DX =    0.0                 !
 ! D3    D(2,1,5,8)            -60.0            -DE/DX =    0.0                 !
 ! D4    D(3,1,5,6)            -60.0            -DE/DX =    0.0                 !
 ! D5    D(3,1,5,7)             60.0            -DE/DX =    0.0                 !
 ! D6    D(3,1,5,8)           -180.0            -DE/DX =    0.0                 !
 ! D7    D(4,1,5,6)           -180.0            -DE/DX =    0.0                 !
 ! D8    D(4,1,5,7)            -60.0            -DE/DX =    0.0                 !
 ! D9    D(4,1,5,8)             60.0            -DE/DX =    0.0                 !
 --------------------------------------------------------------------------------
 GradGradGradGradGradGradGradGradGradGradGradGradGradGradGradGradGradGrad

 Leave Link  103 at Sat Aug 10 16:32:32 2019, MaxMem=  4294967296 cpu:               0.7 elap:               0.1

 ----------------------------------------------------------------------

 Electric dipole moment (input orientation):
 (Debye = 10**-18 statcoulomb cm , SI units = C m)
                  (au)            (Debye)         (10**-30 SI)
   Tot        0.315123D+00      0.800963D+00      0.267172D+01
   x          0.000000D+00      0.000000D+00      0.000000D+00
   y          0.000000D+00      0.000000D+00      0.000000D+00
   z         -0.315123D+00     -0.800963D+00     -0.267172D+01

 Dipole polarizability, Alpha (input orientation).
 (esu units = cm**3 , SI units = C**2 m**2 J**-1)
 Alpha(0;0):
               (au)            (10**-24 esu)      (10**-40 SI)
   iso        0.336441D+02      0.498554D+01      0.554717D+01
   aniso      0.491713D+01      0.728644D+00      0.810726D+00
   xx         0.320053D+02      0.474270D+01      0.527696D+01
   yx         0.000000D+00      0.000000D+00      0.000000D+00
   yy         0.320048D+02      0.474263D+01      0.527688D+01
   zx         0.000000D+00      0.000000D+00      0.000000D+00
   zy        -0.397374D-03     -0.588848D-04     -0.655182D-04
   zz         0.369222D+02      0.547131D+01      0.608765D+01

 ----------------------------------------------------------------------

 Dipole orientation:
     6         -0.00000000          0.00000004          2.36318000
     1          1.67291596         -0.96585805          3.10199484
     1         -1.67291560         -0.96585867          3.10199484
     1         -0.00000036          1.93171676          3.10199497
    14          0.00000000          0.00000020         -1.20495741
     1          0.00000000         -2.62906815         -2.20521790
     1         -2.27684001          1.31453443         -2.20521773
     1          2.27684001          1.31453443         -2.20521773

 Electric dipole moment (dipole orientation):
 (Debye = 10**-18 statcoulomb cm , SI units = C m)
                  (au)            (Debye)         (10**-30 SI)
   Tot        0.315123D+00      0.800963D+00      0.267172D+01
   x          0.000000D+00      0.000000D+00      0.000000D+00
   y          0.000000D+00      0.000000D+00      0.000000D+00
   z          0.315123D+00      0.800963D+00      0.267172D+01

 Dipole polarizability, Alpha (dipole orientation).
 (esu units = cm**3 , SI units = C**2 m**2 J**-1)
 Alpha(0;0):
               (au)            (10**-24 esu)      (10**-40 SI)
   iso        0.336441D+02      0.498554D+01      0.554717D+01
   aniso      0.491713D+01      0.728644D+00      0.810726D+00
   xx         0.320053D+02      0.474270D+01      0.527696D+01
   yx         0.000000D+00      0.000000D+00      0.000000D+00
   yy         0.320048D+02      0.474263D+01      0.527688D+01
   zx         0.000000D+00      0.000000D+00      0.000000D+00
   zy        -0.397587D-03     -0.589163D-04     -0.655532D-04
   zz         0.369222D+02      0.547131D+01      0.608765D+01

 ----------------------------------------------------------------------

 Test job not archived.
 1\1\NSC-N554\Freq\RB3LYP\6-31G(d,p)\C1H6Si1\X_KJEJO\10-Aug-2019\0\\# f
 req(hpmodes,intmodes) iop(1/33=3) b3lyp/6-31g(d,p) geom=connectivity i
 op(7/75=-1)\\name\\0,1\C,0.,-0.0000000769,-1.250541\H,0.885269,0.51111
 ,-1.641505\H,-0.8852688107,0.5111103278,-1.641505\H,-0.0000001893,-1.0
 222205586,-1.641505\Si,0.,-0.0000000769,0.637636\H,0.,1.391243,1.16695
 1\H,-1.2048518475,-0.6956216154,1.166951\H,1.2048518475,-0.6956216154,
 1.166951\\Version=ES64L-G16RevB.01\State=1-A\HF=-331.2187647\RMSD=2.06
 9e-09\RMSF=5.405e-05\ZeroPoint=0.0612429\Thermal=0.065434\Dipole=0.,0.
 ,-0.3151231\DipoleDeriv=-0.2251526,0.0000002,0.,-0.0000002,-0.2251524,
 0.0000214,0.,-0.0000145,-0.382059,-0.0270505,-0.0633101,0.051833,-0.06
 33108,0.0460553,0.0299261,0.0928919,0.0536314,0.0041147,-0.0270499,0.0
 633107,-0.0518332,0.0633108,0.0460547,0.0299257,-0.0928918,0.0536314,0
 .0041147,0.0826076,-0.0000002,0.0000002,-0.0000005,-0.063602,-0.059852
 5,0.,-0.1072604,0.0041211,1.0229677,-0.0000008,0.,0.0000008,1.0230244,
 -0.0000065,0.,0.000005,1.2286458,-0.220542,0.000003,-0.0000002,0.00000
 24,-0.330362,-0.0477376,-0.0000015,-0.035929,-0.2863002,-0.3028964,-0.
 0475518,0.0413412,-0.0475407,-0.2480056,0.023865,0.0311069,0.0179645,-
 0.286311,-0.3029011,0.0475497,-0.041341,0.0475374,-0.2480009,0.0238653
 ,-0.0311054,0.0179671,-0.286311\Polar=32.0053087,0.,32.0048329,0.,-0.0
 003974,36.9222056\Quadrupole=0.0198459,0.0198485,-0.0396943,0.,0.,-0.0
 000004\PG=C03 [C3(C1Si1),X(H6)]\NImag=0\\0.52232030,0.,0.52232036,0.,0
 .00000018,0.38135143,-0.22090606,-0.10197812,0.07712372,0.23954214,-0.
 10197823,-0.10315113,0.04452717,0.11262267,0.10949610,0.09018369,0.052
 06749,-0.07558559,-0.08556100,-0.04939839,0.07746259,-0.22090594,0.101
 97821,-0.07712362,-0.02015705,0.01296955,-0.01042914,0.23954205,0.1019
 7829,-0.10315126,0.04452733,-0.01296957,0.00729753,-0.00692103,-0.1126
 2273,0.10949619,-0.09018369,0.05206750,-0.07558559,0.01042917,-0.00692
 104,0.00368310,0.08556095,-0.04939847,0.07746259,-0.04427433,-0.000000
 06,-0.00000009,0.00043390,-0.02485776,-0.01120838,0.00043389,0.0248577
 7,0.01120835,0.04447383,-0.00000008,-0.27978363,-0.08905416,0.00108131
 ,-0.01329343,-0.00557140,-0.00108130,-0.01329342,-0.00557138,0.0000000
 6,0.30456535,0.,-0.10413449,-0.07558569,-0.00077921,0.01249243,0.00368
 313,0.00077920,0.01249246,0.00368313,0.00000004,0.09879633,0.07746174,
 -0.04278133,0.00000006,0.,0.00021808,0.00098894,0.01967037,0.00021815,
 -0.00098896,-0.01967031,-0.00149498,-0.00000008,-0.00000006,0.31867637
 ,-0.00000006,-0.04278221,-0.00000099,0.00098907,-0.00092363,0.01135653
 ,-0.00098896,-0.00092370,0.01135663,0.,0.00078903,-0.02271313,0.,0.318
 66829,0.,-0.00000135,-0.14706971,-0.00117240,-0.00067701,-0.00678018,0
 .00117240,-0.00067701,-0.00678018,0.,0.00135420,-0.00677962,0.,0.00000
 163,0.30116651,0.00247470,-0.00000001,-0.00000002,0.00005086,0.0000112
 9,-0.00108963,0.00005103,-0.00001141,0.00108949,0.00071281,0.00000001,
 -0.00000002,-0.02751818,-0.00000297,-0.00000043,0.02081568,0.,0.001890
 41,0.00002308,0.00024126,-0.00006129,-0.00069358,-0.00024143,-0.000061
 22,-0.00069355,0.,0.00075135,0.00048561,-0.00000301,-0.15570078,-0.048
 37335,0.00000316,0.16304060,0.00000012,-0.01655902,-0.00250858,0.00032
 349,0.00034166,0.00121846,-0.00032337,0.00034154,0.00121817,0.00000001
 ,0.00094824,-0.00489957,-0.00000093,-0.04650829,-0.04458567,0.00000034
 ,0.05344509,0.04231186,0.00203649,-0.00025302,-0.00001979,0.00074172,0
 .00001669,-0.00042053,0.00007607,-0.00022667,0.00114544,-0.00014264,0.
 00012961,0.00005584,-0.12366008,-0.05550321,0.04189211,0.00170643,-0.0
 0076004,0.00011437,0.12748697,-0.00025300,0.00232872,-0.00001136,0.000
 01667,0.00072244,-0.00024282,0.00000329,-0.00008653,-0.00059693,-0.000
 10041,0.00013243,0.00129030,-0.05550411,-0.05956115,0.02418603,-0.0107
 3375,-0.00492939,0.00399571,0.06158361,0.05636950,0.01434083,0.0082798
 0,-0.00250840,-0.00082120,-0.00047411,-0.00489959,-0.00045763,0.000109
 26,0.00121858,-0.00013413,-0.00045080,0.00121825,0.04027804,0.02325308
 ,-0.04458548,-0.00340292,-0.00209638,0.00362256,-0.04628437,-0.0267220
 4,0.04231191,0.00203649,0.00025301,0.00001981,0.00007630,0.00022681,-0
 .00114534,0.00074170,-0.00001668,0.00042055,-0.00014261,-0.00012955,-0
 .00005580,-0.12365490,0.05550624,-0.04189168,0.00170652,0.00075999,-0.
 00011406,-0.00824645,0.00498703,-0.00351768,0.12748150,0.00025302,0.00
 232871,-0.00001132,-0.00000320,-0.00008651,-0.00059682,-0.00001669,0.0
 0072245,-0.00024278,0.00010041,0.00013216,0.00129044,0.05550705,-0.059
 56633,0.02418678,0.01073371,-0.00492948,0.00399521,-0.00498693,0.00502
 416,-0.00189878,-0.06158677,0.05637498,-0.01434095,0.00827959,-0.00250
 840,0.00045747,0.00010921,0.00121830,0.00082119,-0.00047413,-0.0048995
 9,0.00013417,-0.00045096,0.00121853,-0.04027712,0.02325468,-0.04458548
 ,0.00340320,-0.00209690,0.00362256,0.00351710,-0.00189880,0.00362229,0
 .04628403,-0.02672263,0.04231191\\0.,-0.00000023,-0.00002606,0.0001014
 9,0.00005921,0.00000993,-0.00010148,0.00005923,0.00000993,-0.00000001,
 -0.00011732,0.00000779,0.,-0.00000005,-0.00012877,0.00000002,0.0000433
 8,0.00004211,-0.00003859,-0.00002210,0.00004254,0.00003857,-0.00002213
 ,0.00004254\\\@


 MAN IS THE MEASURE OF ALL THINGS.
  -- PROTAGORAS (5TH CENTURY B.C.)
 Job cpu time:       0 days  0 hours  1 minutes 24.8 seconds.
 Elapsed time:       0 days  0 hours  0 minutes  7.6 seconds.
 File lengths (MBytes):  RWF=      6 Int=      0 D2E=      0 Chk=      8 Scr=      1
 Normal termination of Gaussian 16 at Sat Aug 10 16:32:33 2019.
