 Entering Gaussian System, Link 0=/software/sse/easybuild/prefix/software/Gaussian/16.B.01-avx2-nsc1-bdist/g16/g16.orig
 Input=freq-lm.wrap
 Output=freq-lm.log
 Initial command:
 /software/sse/easybuild/prefix/software/Gaussian/16.B.01-avx2-nsc1-bdist/g16/l1.exe "/scratch/local/Gau-149701.inp" -scrdir="/scratch/local/"
 Default is to use a total of  16 processors:
                               16 via shared-memory
                                1 via Linda
 Entering Link 1 = /software/sse/easybuild/prefix/software/Gaussian/16.B.01-avx2-nsc1-bdist/g16/l1.exe PID=    149706.
  
 Copyright (c) 1988-2017, Gaussian, Inc.  All Rights Reserved.
  
 This is part of the Gaussian(R) 16 program.  It is based on
 the Gaussian(R) 09 system (copyright 2009, Gaussian, Inc.),
 the Gaussian(R) 03 system (copyright 2003, Gaussian, Inc.),
 the Gaussian(R) 98 system (copyright 1998, Gaussian, Inc.),
 the Gaussian(R) 94 system (copyright 1995, Gaussian, Inc.),
 the Gaussian 92(TM) system (copyright 1992, Gaussian, Inc.),
 the Gaussian 90(TM) system (copyright 1990, Gaussian, Inc.),
 the Gaussian 88(TM) system (copyright 1988, Gaussian, Inc.),
 the Gaussian 86(TM) system (copyright 1986, Carnegie Mellon
 University), and the Gaussian 82(TM) system (copyright 1983,
 Carnegie Mellon University). Gaussian is a federally registered
 trademark of Gaussian, Inc.
  
 This software contains proprietary and confidential information,
 including trade secrets, belonging to Gaussian, Inc.
  
 This software is provided under written license and may be
 used, copied, transmitted, or stored only in accord with that
 written license.
  
 The following legend is applicable only to US Government
 contracts under FAR:
  
                    RESTRICTED RIGHTS LEGEND
  
 Use, reproduction and disclosure by the US Government is
 subject to restrictions as set forth in subparagraphs (a)
 and (c) of the Commercial Computer Software - Restricted
 Rights clause in FAR 52.227-19.
  
 Gaussian, Inc.
 340 Quinnipiac St., Bldg. 40, Wallingford CT 06492
  
  
 ---------------------------------------------------------------
 Warning -- This program may not be used in any manner that
 competes with the business of Gaussian, Inc. or will provide
 assistance to any competitor of Gaussian, Inc.  The licensee
 of this program is prohibited from giving any competitor of
 Gaussian, Inc. access to this program.  By using this program,
 the user acknowledges that Gaussian, Inc. is engaged in the
 business of creating and licensing software in the field of
 computational chemistry and represents and warrants to the
 licensee that it is not a competitor of Gaussian, Inc. and that
 it will not use this program in any manner prohibited above.
 ---------------------------------------------------------------
  

 Cite this work as:
 Gaussian 16, Revision B.01,
 M. J. Frisch, G. W. Trucks, H. B. Schlegel, G. E. Scuseria, 
 M. A. Robb, J. R. Cheeseman, G. Scalmani, V. Barone, 
 G. A. Petersson, H. Nakatsuji, X. Li, M. Caricato, A. V. Marenich, 
 J. Bloino, B. G. Janesko, R. Gomperts, B. Mennucci, H. P. Hratchian, 
 J. V. Ortiz, A. F. Izmaylov, J. L. Sonnenberg, D. Williams-Young, 
 F. Ding, F. Lipparini, F. Egidi, J. Goings, B. Peng, A. Petrone, 
 T. Henderson, D. Ranasinghe, V. G. Zakrzewski, J. Gao, N. Rega, 
 G. Zheng, W. Liang, M. Hada, M. Ehara, K. Toyota, R. Fukuda, 
 J. Hasegawa, M. Ishida, T. Nakajima, Y. Honda, O. Kitao, H. Nakai, 
 T. Vreven, K. Throssell, J. A. Montgomery, Jr., J. E. Peralta, 
 F. Ogliaro, M. J. Bearpark, J. J. Heyd, E. N. Brothers, K. N. Kudin, 
 V. N. Staroverov, T. A. Keith, R. Kobayashi, J. Normand, 
 K. Raghavachari, A. P. Rendell, J. C. Burant, S. S. Iyengar, 
 J. Tomasi, M. Cossi, J. M. Millam, M. Klene, C. Adamo, R. Cammi, 
 J. W. Ochterski, R. L. Martin, K. Morokuma, O. Farkas, 
 J. B. Foresman, and D. J. Fox, Gaussian, Inc., Wallingford CT, 2016.
 
 ******************************************
 Gaussian 16:  ES64L-G16RevB.01 20-Dec-2017
                10-Aug-2019 
 ******************************************
 %chk=freq.chk
 ----------------------------------------------------------------------
 # freq(intmodes) iop(1/33=3) b3lyp/6-31g(d,p) geom=connectivity iop(7/
 75=-1)
 ----------------------------------------------------------------------
 1/10=4,18=20,30=1,33=3,38=1,57=2/1,3;
 2/9=110,12=2,17=6,18=5,40=1/2;
 3/5=1,6=6,7=101,11=2,25=1,30=1,71=2,74=-5,140=1/1,2,3;
 4//1;
 5/5=2,38=5,98=1/2;
 8/6=4,10=90,11=11/1;
 11/6=1,8=1,9=11,15=111,16=1/1,2,10;
 10/6=1/2;
 6/7=2,8=2,9=2,10=2,28=1/1;
 7/8=21,10=1,25=1,75=-1/1,2,3,16;
 1/10=4,18=20,30=1,33=3/3;
 99//99;
 ONIOM results not found on unit 2.
 ----
 name
 ----
 TstMul:  ICh=     0
 TstMul:  Mul=     1
 TstMul:  ICh=     0
 TstMul:  Mul=     1
 Symbolic Z-matrix:
 Charge =  0 Multiplicity = 1
 C                     1.20809   1.29289   0. 
 H                     2.11411   0.69054   0. 
 H                     1.33923   2.37003   0. 
 C                     0.        0.71911   0. 
 H                    -0.91987   1.29854   0. 
 C                    -0.14666  -0.74866   0. 
 H                     0.81594  -1.30958   0. 
 O                    -1.21475  -1.3287    0. 
 
 RdStrC is calling ZToCFu for IStruc=1 NZ=     8.
                                ZToCFu                                
 ---------------------------------------------------------------------
 Center     Atomic      Atomic             Coordinates (Angstroms)
 Number     Number       Type             X           Y           Z
 ---------------------------------------------------------------------
      1          6           0        1.208091    1.292891    0.000000
      2          1           0        2.114108    0.690539    0.000000
      3          1           0        1.339226    2.370031    0.000000
      4          6           0        0.000000    0.719108    0.000000
      5          1           0       -0.919865    1.298539    0.000000
      6          6           0       -0.146657   -0.748656    0.000000
      7          1           0        0.815936   -1.309578    0.000000
      8          8           0       -1.214752   -1.328699    0.000000
 ---------------------------------------------------------------------
 Connectivity in DoCon:
 I=     1 IAn=  6 IBond, RBType=     2  1.00     3  1.00     4  2.00
 I=     2 IAn=  1 IBond, RBType=     1  1.00
 I=     3 IAn=  1 IBond, RBType=     1  1.00
 I=     4 IAn=  6 IBond, RBType=     1  2.00     5  1.00     6  1.00
 I=     5 IAn=  1 IBond, RBType=     4  1.00
 I=     6 IAn=  6 IBond, RBType=     4  1.00     7  1.00     8  2.00
 I=     7 IAn=  1 IBond, RBType=     6  1.00
 I=     8 IAn=  8 IBond, RBType=     6  2.00
 After GenITR:
 ITRead=  0  0  0  0  0  0  0  0
 MicOpt= -1 -1 -1 -1 -1 -1 -1 -1
 List IsCon N=      8 M=      2:
 I=      1 Vals=      2      1 |      3      1 |      4      2 |
 I=      2 Vals=      1      1 |
 I=      3 Vals=      1      1 |
 I=      4 Vals=      1      2 |      5      1 |      6      1 |
 I=      5 Vals=      4      1 |
 I=      6 Vals=      4      1 |      7      1 |      8      2 |
 I=      7 Vals=      6      1 |
 I=      8 Vals=      6      2 |
 Coordinate R1 contains atom 1 which is already in QM block.
 Coordinate R1 contains atom 2 which is already in QM block.
 Coordinate R2 contains atom 1 which is already in QM block.
 Coordinate R2 contains atom 3 which is already in QM block.
 Coordinate R3 contains atom 1 which is already in QM block.
 Coordinate R3 contains atom 4 which is already in QM block.
 Coordinate R4 contains atom 4 which is already in QM block.
 Coordinate R4 contains atom 5 which is already in QM block.
 Coordinate R5 contains atom 4 which is already in QM block.
 Coordinate R5 contains atom 6 which is already in QM block.
 Coordinate R6 contains atom 6 which is already in QM block.
 Coordinate R6 contains atom 7 which is already in QM block.
 Coordinate R7 contains atom 6 which is already in QM block.
 Coordinate R7 contains atom 8 which is already in QM block.
 Coordinate A1 contains atom 2 which is already in QM block.
 Coordinate A1 contains atom 1 which is already in QM block.
 Coordinate A1 contains atom 1 which is already in QM block.
 Coordinate A2 contains atom 2 which is already in QM block.
 Coordinate A2 contains atom 1 which is already in QM block.
 Coordinate A2 contains atom 1 which is already in QM block.
 Coordinate A3 contains atom 3 which is already in QM block.
 Coordinate A3 contains atom 1 which is already in QM block.
 Coordinate A3 contains atom 1 which is already in QM block.
 Coordinate A4 contains atom 1 which is already in QM block.
 Coordinate A4 contains atom 4 which is already in QM block.
 Coordinate A4 contains atom 4 which is already in QM block.
 Coordinate A5 contains atom 1 which is already in QM block.
 Coordinate A5 contains atom 4 which is already in QM block.
 Coordinate A5 contains atom 4 which is already in QM block.
 Coordinate A6 contains atom 5 which is already in QM block.
 Coordinate A6 contains atom 4 which is already in QM block.
 Coordinate A6 contains atom 4 which is already in QM block.
 Coordinate A7 contains atom 4 which is already in QM block.
 Coordinate A7 contains atom 6 which is already in QM block.
 Coordinate A7 contains atom 6 which is already in QM block.
 Coordinate A8 contains atom 4 which is already in QM block.
 Coordinate A8 contains atom 6 which is already in QM block.
 Coordinate A8 contains atom 6 which is already in QM block.
 Coordinate A9 contains atom 7 which is already in QM block.
 Coordinate A9 contains atom 6 which is already in QM block.
 Coordinate A9 contains atom 6 which is already in QM block.
 Coordinate D1 contains atom 2 which is already in QM block.
 Coordinate D1 contains atom 1 which is already in QM block.
 Coordinate D1 contains atom 4 which is already in QM block.
 Coordinate D1 contains atom 5 which is already in QM block.
 Coordinate D2 contains atom 2 which is already in QM block.
 Coordinate D2 contains atom 1 which is already in QM block.
 Coordinate D2 contains atom 4 which is already in QM block.
 Coordinate D2 contains atom 6 which is already in QM block.
 Coordinate D3 contains atom 3 which is already in QM block.
 Coordinate D3 contains atom 1 which is already in QM block.
 Coordinate D3 contains atom 4 which is already in QM block.
 Coordinate D3 contains atom 5 which is already in QM block.
 Coordinate D4 contains atom 3 which is already in QM block.
 Coordinate D4 contains atom 1 which is already in QM block.
 Coordinate D4 contains atom 4 which is already in QM block.
 Coordinate D4 contains atom 6 which is already in QM block.
 Coordinate D5 contains atom 1 which is already in QM block.
 Coordinate D5 contains atom 4 which is already in QM block.
 Coordinate D5 contains atom 6 which is already in QM block.
 Coordinate D5 contains atom 7 which is already in QM block.
 Coordinate D6 contains atom 1 which is already in QM block.
 Coordinate D6 contains atom 4 which is already in QM block.
 Coordinate D6 contains atom 6 which is already in QM block.
 Coordinate D6 contains atom 8 which is already in QM block.
 Coordinate D7 contains atom 5 which is already in QM block.
 Coordinate D7 contains atom 4 which is already in QM block.
 Coordinate D7 contains atom 6 which is already in QM block.
 Coordinate D7 contains atom 7 which is already in QM block.
 Coordinate D8 contains atom 5 which is already in QM block.
 Coordinate D8 contains atom 4 which is already in QM block.
 Coordinate D8 contains atom 6 which is already in QM block.
 Coordinate D8 contains atom 8 which is already in QM block.
 Saved connectivity
 I=     1 IAn=  6 IBond, RBType=     2  1.00     3  1.00     4  2.00
 I=     2 IAn=  1 IBond, RBType=     1  1.00
 I=     3 IAn=  1 IBond, RBType=     1  1.00
 I=     4 IAn=  6 IBond, RBType=     1  2.00     5  1.00     6  1.00
 I=     5 IAn=  1 IBond, RBType=     4  1.00
 I=     6 IAn=  6 IBond, RBType=     4  1.00     7  1.00     8  2.00
 I=     7 IAn=  1 IBond, RBType=     6  1.00
 I=     8 IAn=  8 IBond, RBType=     6  2.00
 ITRead=  0  0  0  0  0  0  0  0
 MicOpt= -1 -1 -1 -1 -1 -1 -1 -1
 NAtoms=      8 NQM=        8 NQMF=       0 NMMI=      0 NMMIF=      0
                NMic=       0 NMicF=      0.
 No MM parameters found.
 Leave Link  101 at Sat Aug 10 16:33:06 2019, MaxMem=  4294967296 cpu:               5.9 elap:               0.4

 GradGradGradGradGradGradGradGradGradGradGradGradGradGradGradGradGradGrad
 Berny optimization.
 GetPCM: File not found, return IValue=0.
 Optmz: redundant internal coordinate code flag= 1
 Initialization pass.
                           ----------------------------
                           !    Initial Parameters    !
                           ! (Angstroms and Degrees)  !
 --------------------------                            --------------------------
 ! Name  Definition              Value          Derivative Info.                !
 --------------------------------------------------------------------------------
 ! R1    R(1,2)                  1.088          calculate D2E/DX2 analytically  !
 ! R2    R(1,3)                  1.0851         calculate D2E/DX2 analytically  !
 ! R3    R(1,4)                  1.3374         calculate D2E/DX2 analytically  !
 ! R4    R(4,5)                  1.0871         calculate D2E/DX2 analytically  !
 ! R5    R(4,6)                  1.4751         calculate D2E/DX2 analytically  !
 ! R6    R(6,7)                  1.1141         calculate D2E/DX2 analytically  !
 ! R7    R(6,8)                  1.2154         calculate D2E/DX2 analytically  !
 ! A1    A(2,1,3)              116.6761         calculate D2E/DX2 analytically  !
 ! A2    A(2,1,4)              120.9773         calculate D2E/DX2 analytically  !
 ! A3    A(3,1,4)              122.3466         calculate D2E/DX2 analytically  !
 ! A4    A(1,4,5)              122.3874         calculate D2E/DX2 analytically  !
 ! A5    A(1,4,6)              121.1114         calculate D2E/DX2 analytically  !
 ! A6    A(5,4,6)              116.5012         calculate D2E/DX2 analytically  !
 ! A7    A(4,6,7)              114.5242         calculate D2E/DX2 analytically  !
 ! A8    A(4,6,8)              124.2107         calculate D2E/DX2 analytically  !
 ! A9    A(7,6,8)              121.265          calculate D2E/DX2 analytically  !
 ! D1    D(2,1,4,5)            180.0            calculate D2E/DX2 analytically  !
 ! D2    D(2,1,4,6)              0.0            calculate D2E/DX2 analytically  !
 ! D3    D(3,1,4,5)              0.0            calculate D2E/DX2 analytically  !
 ! D4    D(3,1,4,6)            180.0            calculate D2E/DX2 analytically  !
 ! D5    D(1,4,6,7)              0.0            calculate D2E/DX2 analytically  !
 ! D6    D(1,4,6,8)            180.0            calculate D2E/DX2 analytically  !
 ! D7    D(5,4,6,7)            180.0            calculate D2E/DX2 analytically  !
 ! D8    D(5,4,6,8)              0.0            calculate D2E/DX2 analytically  !
 --------------------------------------------------------------------------------
 Maximum allowed force set to 1.00D+20.
 Trust Radius=3.00D-01 FncErr=1.00D-07 GrdErr=1.00D-07 EigMax=2.50D+02 EigMin=1.00D-04
 Number of steps in this run=      2 maximum allowed number of steps=      2.
 GradGradGradGradGradGradGradGradGradGradGradGradGradGradGradGradGradGrad

 Leave Link  103 at Sat Aug 10 16:33:06 2019, MaxMem=  4294967296 cpu:               0.5 elap:               0.2
                          Input orientation:                          
 ---------------------------------------------------------------------
 Center     Atomic      Atomic             Coordinates (Angstroms)
 Number     Number       Type             X           Y           Z
 ---------------------------------------------------------------------
      1          6           0        1.208091    1.292891    0.000000
      2          1           0        2.114108    0.690539    0.000000
      3          1           0        1.339226    2.370031    0.000000
      4          6           0        0.000000    0.719108    0.000000
      5          1           0       -0.919865    1.298539    0.000000
      6          6           0       -0.146657   -0.748656    0.000000
      7          1           0        0.815936   -1.309578    0.000000
      8          8           0       -1.214752   -1.328699    0.000000
 ---------------------------------------------------------------------
                    Distance matrix (angstroms):
                    1          2          3          4          5
     1  C    0.000000
     2  H    1.087977   0.000000
     3  H    1.085093   1.849631   0.000000
     4  C    1.337427   2.114301   2.125811   0.000000
     5  H    2.127963   3.094294   2.500317   1.087149   0.000000
     6  C    2.450154   2.679989   3.454570   1.475073   2.188346
     7  H    2.631849   2.384474   3.716632   2.186623   3.132935
     8  O    3.569720   3.893409   4.494820   2.380995   2.643736
                    6          7          8
     6  C    0.000000
     7  H    1.114100   0.000000
     8  O    1.215433   2.030778   0.000000
 Stoichiometry    C3H4O
 Framework group  CS[SG(C3H4O)]
 Deg. of freedom    13
 Full point group                 CS      NOp   2
 Largest Abelian subgroup         CS      NOp   2
 Largest concise Abelian subgroup C1      NOp   1
                         Standard orientation:                         
 ---------------------------------------------------------------------
 Center     Atomic      Atomic             Coordinates (Angstroms)
 Number     Number       Type             X           Y           Z
 ---------------------------------------------------------------------
      1          6           0        1.208091    1.292891    0.000000
      2          1           0        2.114108    0.690540    0.000000
      3          1           0        1.339225    2.370032    0.000000
      4          6           0        0.000000    0.719108   -0.000000
      5          1           0       -0.919865    1.298539   -0.000000
      6          6           0       -0.146657   -0.748656    0.000000
      7          1           0        0.815937   -1.309578    0.000000
      8          8           0       -1.214751   -1.328699   -0.000000
 ---------------------------------------------------------------------
 Rotational constants (GHZ):          47.9656841           4.6317344           4.2238633
 Standard basis: 6-31G(d,p) (6D, 7F)
 There are    60 symmetry adapted cartesian basis functions of A'  symmetry.
 There are    20 symmetry adapted cartesian basis functions of A"  symmetry.
 There are    60 symmetry adapted basis functions of A'  symmetry.
 There are    20 symmetry adapted basis functions of A"  symmetry.
    80 basis functions,   140 primitive gaussians,    80 cartesian basis functions
    15 alpha electrons       15 beta electrons
       nuclear repulsion energy       102.8484059085 Hartrees.
 NAtoms=    8 NActive=    8 NUniq=    8 SFac= 1.00D+00 NAtFMM=   60 NAOKFM=F Big=F
 Integral buffers will be    131072 words long.
 Raffenetti 2 integral format.
 Two-electron integral symmetry is turned on.
 One-electron integrals computed using PRISM.
 NBasis=    80 RedAO= T EigKep=  3.90D-03  NBF=    60    20
 NBsUse=    80 1.00D-06 EigRej= -1.00D+00 NBFU=    60    20
 ExpMin= 1.61D-01 ExpMax= 5.48D+03 ExpMxC= 8.25D+02 IAcc=3 IRadAn=         5 AccDes= 0.00D+00
 Harris functional with IExCor=  402 and IRadAn=       5 diagonalized for initial guess.
 HarFok:  IExCor=  402 AccDes= 0.00D+00 IRadAn=         5 IDoV= 1 UseB2=F ITyADJ=14
 ICtDFT=  3500011 ScaDFX=  1.000000  1.000000  1.000000  1.000000
 FoFCou: FMM=F IPFlag=           0 FMFlag=      100000 FMFlg1=           0
         NFxFlg=           0 DoJE=T BraDBF=F KetDBF=T FulRan=T
         wScrn=  0.000000 ICntrl=       500 IOpCl=  0 I1Cent=   200000004 NGrid=           0
         NMat0=    1 NMatS0=      1 NMatT0=    0 NMatD0=    1 NMtDS0=    0 NMtDT0=    0
 Petite list used in FoFCou.
 Initial guess orbital symmetries:
       Occupied  (A') (A') (A') (A') (A') (A') (A') (A') (A') (A')
                 (A') (A") (A') (A") (A')
       Virtual   (A") (A") (A') (A') (A') (A') (A') (A') (A') (A')
                 (A") (A') (A") (A') (A') (A") (A') (A') (A') (A')
                 (A') (A') (A") (A') (A') (A') (A') (A") (A') (A")
                 (A") (A") (A') (A') (A') (A") (A') (A') (A') (A")
                 (A') (A') (A') (A") (A') (A") (A") (A') (A") (A')
                 (A") (A') (A") (A') (A') (A') (A') (A') (A') (A')
                 (A') (A') (A') (A') (A')
 The electronic state of the initial guess is 1-A'.
 Keep R1 ints in memory in symmetry-blocked form, NReq=19751024.
 Requested convergence on RMS density matrix=1.00D-08 within 128 cycles.
 Requested convergence on MAX density matrix=1.00D-06.
 Requested convergence on             energy=1.00D-06.
 No special actions if energy rises.
 Integral accuracy reduced to 1.0D-05 until final iterations.
 Initial convergence to 1.0D-05 achieved.  Increase integral accuracy.
 SCF Done:  E(RB3LYP) =  -191.918014847     A.U. after   14 cycles
            NFock= 14  Conv=0.17D-08     -V/T= 2.0094
 DoSCS=F DFT=T ScalE2(SS,OS)=  1.000000  1.000000
 Range of M.O.s used for correlation:     1    80
 NBasis=    80 NAE=    15 NBE=    15 NFC=     0 NFV=     0
 NROrb=     80 NOA=    15 NOB=    15 NVA=    65 NVB=    65
 Symmetrizing basis deriv contribution to polar:
 IMax=3 JMax=2 DiffMx= 0.00D+00
 G2DrvN: will do     9 centers at a time, making    1 passes.
 Calling FoFCou, ICntrl=  3107 FMM=F I1Cent=   0 AccDes= 0.00D+00.
 End of G2Drv F.D. properties file   721 does not exist.
 End of G2Drv F.D. properties file   722 does not exist.
 End of G2Drv F.D. properties file   788 does not exist.
          IDoAtm=11111111
          Differentiating once with respect to electric field.
                with respect to dipole field.
          Differentiating once with respect to nuclear coordinates.
 Keep R1 ints in memory in symmetry-blocked form, NReq=19702450.
          There are    27 degrees of freedom in the 1st order CPHF.  IDoFFX=6 NUNeed=     3.
     24 vectors produced by pass  0 Test12= 3.61D-15 3.70D-09 XBig12= 5.89D+01 6.14D+00.
 AX will form    24 AO Fock derivatives at one time.
     24 vectors produced by pass  1 Test12= 3.61D-15 3.70D-09 XBig12= 1.13D+01 7.49D-01.
     24 vectors produced by pass  2 Test12= 3.61D-15 3.70D-09 XBig12= 1.47D-01 8.58D-02.
     24 vectors produced by pass  3 Test12= 3.61D-15 3.70D-09 XBig12= 5.43D-04 5.74D-03.
     24 vectors produced by pass  4 Test12= 3.61D-15 3.70D-09 XBig12= 7.20D-07 1.56D-04.
     14 vectors produced by pass  5 Test12= 3.61D-15 3.70D-09 XBig12= 6.54D-10 5.24D-06.
      3 vectors produced by pass  6 Test12= 3.61D-15 3.70D-09 XBig12= 5.49D-13 2.03D-07.
      1 vectors produced by pass  7 Test12= 3.61D-15 3.70D-09 XBig12= 3.72D-16 3.73D-09.
 InvSVY:  IOpt=1 It=  1 EMax= 2.66D-15
 Solved reduced A of dimension   138 with    27 vectors.
 Isotropic polarizability for W=    0.000000       33.85 Bohr**3.
 End of Minotr F.D. properties file   721 does not exist.
 End of Minotr F.D. properties file   722 does not exist.
 End of Minotr F.D. properties file   788 does not exist.

 **********************************************************************

            Population analysis using the SCF Density.

 **********************************************************************

 Orbital symmetries:
       Occupied  (A') (A') (A') (A') (A') (A') (A') (A') (A') (A')
                 (A') (A") (A') (A") (A')
       Virtual   (A") (A") (A') (A') (A') (A') (A') (A') (A') (A")
                 (A') (A') (A") (A') (A") (A') (A') (A') (A') (A')
                 (A') (A') (A') (A") (A') (A') (A') (A') (A") (A")
                 (A") (A") (A') (A') (A') (A") (A') (A') (A') (A")
                 (A') (A') (A') (A") (A') (A") (A") (A') (A") (A')
                 (A") (A') (A") (A') (A') (A') (A') (A') (A') (A')
                 (A') (A') (A') (A') (A')
 The electronic state is 1-A'.
 Alpha  occ. eigenvalues --  -19.14834 -10.27817 -10.22156 -10.21128  -1.04259
 Alpha  occ. eigenvalues --   -0.80389  -0.64914  -0.57415  -0.47753  -0.47531
 Alpha  occ. eigenvalues --   -0.41889  -0.39790  -0.39431  -0.29382  -0.25707
 Alpha virt. eigenvalues --   -0.06566   0.05645   0.10612   0.11114   0.15245
 Alpha virt. eigenvalues --    0.18600   0.26269   0.30977   0.35221   0.50361
 Alpha virt. eigenvalues --    0.50777   0.55289   0.58207   0.61382   0.63299
 Alpha virt. eigenvalues --    0.66012   0.67768   0.79320   0.80356   0.84212
 Alpha virt. eigenvalues --    0.84739   0.89465   0.93686   0.98234   1.04924
 Alpha virt. eigenvalues --    1.07402   1.14324   1.26723   1.29409   1.35221
 Alpha virt. eigenvalues --    1.45146   1.47389   1.54705   1.72028   1.75989
 Alpha virt. eigenvalues --    1.78762   1.84144   1.92655   1.93978   1.98582
 Alpha virt. eigenvalues --    1.99447   2.08546   2.13914   2.17344   2.25583
 Alpha virt. eigenvalues --    2.36399   2.43147   2.45281   2.54717   2.54894
 Alpha virt. eigenvalues --    2.58224   2.68825   2.69978   2.74236   2.91609
 Alpha virt. eigenvalues --    2.94904   3.02821   3.23275   3.35984   3.47341
 Alpha virt. eigenvalues --    3.67289   3.88883   4.11929   4.28380   4.55177
          Condensed to atoms (all electrons):
               1          2          3          4          5          6
     1  C    4.973239   0.384046   0.372729   0.533565  -0.042502  -0.013555
     2  H    0.384046   0.574036  -0.040397  -0.042308   0.005206  -0.009367
     3  H    0.372729  -0.040397   0.563130  -0.017298  -0.006159   0.002810
     4  C    0.533565  -0.042308  -0.017298   5.061074   0.367892   0.353537
     5  H   -0.042502   0.005206  -0.006159   0.367892   0.586221  -0.032082
     6  C   -0.013555  -0.009367   0.002810   0.353537  -0.032082   4.524593
     7  H    0.009736   0.009549  -0.000225  -0.124202   0.005657   0.356001
     8  O    0.004372   0.000092  -0.000080  -0.063029   0.001299   0.538359
               7          8
     1  C    0.009736   0.004372
     2  H    0.009549   0.000092
     3  H   -0.000225  -0.000080
     4  C   -0.124202  -0.063029
     5  H    0.005657   0.001299
     6  C    0.356001   0.538359
     7  H    0.734081  -0.052431
     8  O   -0.052431   7.981193
 Mulliken charges:
               1
     1  C   -0.221632
     2  H    0.119143
     3  H    0.125491
     4  C   -0.069232
     5  H    0.114467
     6  C    0.279704
     7  H    0.061835
     8  O   -0.409777
 Sum of Mulliken charges =  -0.00000
 Mulliken charges with hydrogens summed into heavy atoms:
               1
     1  C    0.023002
     4  C    0.045235
     6  C    0.341540
     8  O   -0.409777
 APT charges:
               1
     1  C    0.017408
     2  H    0.040410
     3  H    0.044086
     4  C   -0.208344
     5  H    0.031827
     6  C    0.795522
     7  H   -0.074672
     8  O   -0.646237
 Sum of APT charges =   0.00000
 APT charges with hydrogens summed into heavy atoms:
               1
     1  C    0.101904
     4  C   -0.176517
     6  C    0.720850
     8  O   -0.646237
 Electronic spatial extent (au):  <R**2>=            298.4651
 Charge=             -0.0000 electrons
 Dipole moment (field-independent basis, Debye):
    X=              2.3749    Y=              2.0700    Z=              0.0000  Tot=              3.1504
 Quadrupole moment (field-independent basis, Debye-Ang):
   XX=            -24.0790   YY=            -23.6887   ZZ=            -24.2770
   XY=             -2.4944   XZ=             -0.0000   YZ=             -0.0000
 Traceless Quadrupole moment (field-independent basis, Debye-Ang):
   XX=             -0.0641   YY=              0.3262   ZZ=             -0.2621
   XY=             -2.4944   XZ=             -0.0000   YZ=             -0.0000
 Octapole moment (field-independent basis, Debye-Ang**2):
  XXX=              2.2850  YYY=              4.8766  ZZZ=             -0.0000  XYY=              4.5518
  XXY=              4.2192  XXZ=              0.0000  XZZ=             -2.7089  YZZ=             -3.3519
  YYZ=              0.0000  XYZ=              0.0000
 Hexadecapole moment (field-independent basis, Debye-Ang**3):
 XXXX=           -145.8125 YYYY=           -195.8706 ZZZZ=            -22.5421 XXXY=            -59.2292
 XXXZ=             -0.0000 YYYX=            -56.8116 YYYZ=             -0.0000 ZZZX=             -0.0000
 ZZZY=             -0.0000 XXYY=            -59.2806 XXZZ=            -29.3566 YYZZ=            -39.1088
 XXYZ=             -0.0000 YYXZ=             -0.0000 ZZXY=            -19.3249
 N-N= 1.028484059085D+02 E-N=-6.530947402188D+02  KE= 1.901396887273D+02
 Symmetry A'   KE= 1.843503394747D+02
 Symmetry A"   KE= 5.789349252596D+00
  Exact polarizability:  45.260  11.429  41.999   0.000  -0.000  14.299
 Approx polarizability:  79.495  26.716  61.033   0.000  -0.000  20.338
 Calling FoFJK, ICntrl=    100127 FMM=F ISym2X=1 I1Cent= 0 IOpClX= 0 NMat=1 NMatS=1 NMatT=0.
 Full mass-weighted force constant matrix:
 Low frequencies ---   -0.0011   -0.0011   -0.0011    2.5421    2.6007   12.1282
 Low frequencies ---  174.7968  319.8935  572.2326
 Diagonal vibrational polarizability:
        1.7925759       4.9021454       5.4168060
 Harmonic frequencies (cm**-1), IR intensities (KM/Mole), Raman scattering
 activities (A**4/AMU), depolarization ratios for plane and unpolarized
 incident light, reduced masses (AMU), force constants (mDyne/A),
 and normal coordinates:
                      1                      2                      3
                     A"                     A'                     A'
 Frequencies --    174.7960               319.8935               572.2326
 Red. masses --      3.4591                 2.6929                 4.8805
 Frc consts  --      0.0623                 0.1624                 0.9416
 IR Inten    --      4.0495                 9.3935                 5.7392
  Atom  AN      X      Y      Z        X      Y      Z        X      Y      Z
     1   6    -0.00   0.00   0.19     0.03  -0.18   0.00    -0.20  -0.21   0.00
     2   1     0.00   0.00   0.36    -0.21  -0.53  -0.00    -0.34  -0.42  -0.00
     3   1    -0.00   0.00   0.43     0.45  -0.23   0.00     0.02  -0.24   0.00
     4   6     0.00  -0.00  -0.24    -0.14   0.18  -0.00    -0.17  -0.14  -0.00
     5   1     0.00  -0.00  -0.33    -0.04   0.34   0.00    -0.34  -0.43   0.00
     6   6     0.00  -0.00  -0.25    -0.06   0.17  -0.00     0.25   0.01   0.00
     7   1    -0.00  -0.00  -0.61     0.08   0.39  -0.00     0.21  -0.06   0.00
     8   8    -0.00   0.00   0.23     0.11  -0.12   0.00     0.11   0.32   0.00
                      4                      5                      6
                     A"                     A'                     A"
 Frequencies --    611.4117               925.9389               993.5337
 Red. masses --      1.1807                 1.5705                 1.3339
 Frc consts  --      0.2600                 0.7933                 0.7758
 IR Inten    --      7.1864                21.1321                35.0892
  Atom  AN      X      Y      Z        X      Y      Z        X      Y      Z
     1   6     0.00   0.00   0.01     0.00   0.13  -0.00    -0.00  -0.00  -0.16
     2   1     0.00   0.00  -0.51    -0.35  -0.41   0.00    -0.00   0.00   0.68
     3   1    -0.00   0.00   0.65     0.71   0.05   0.00    -0.00   0.00   0.70
     4   6     0.00   0.00  -0.12    -0.01   0.09   0.00     0.00  -0.00   0.03
     5   1     0.00   0.00   0.35    -0.20  -0.20   0.00     0.00   0.00   0.03
     6   6    -0.00  -0.00   0.03     0.05  -0.14  -0.00    -0.00   0.00   0.04
     7   1    -0.00  -0.00   0.43    -0.03  -0.27   0.00     0.00   0.00  -0.13
     8   8    -0.00  -0.00  -0.00    -0.04  -0.01   0.00     0.00   0.00  -0.01
                      7                      8                      9
                     A"                     A"                     A'
 Frequencies --   1023.3906              1043.1732              1174.3608
 Red. masses --      1.6264                 1.1817                 1.9964
 Frc consts  --      1.0036                 0.7576                 1.6222
 IR Inten    --      7.3268                 7.5962                36.7417
  Atom  AN      X      Y      Z        X      Y      Z        X      Y      Z
     1   6    -0.00   0.00   0.04     0.00  -0.00  -0.01    -0.01  -0.07  -0.00
     2   1     0.00   0.00   0.16     0.00   0.00   0.46     0.15   0.19   0.00
     3   1    -0.00   0.00  -0.23    -0.00   0.00  -0.30    -0.28  -0.03   0.00
     4   6     0.00   0.00  -0.15     0.00  -0.00  -0.02    -0.09   0.16   0.00
     5   1     0.00   0.00   0.66    -0.00  -0.00   0.64     0.30   0.78   0.00
     6   6     0.00  -0.00   0.17    -0.00   0.00  -0.12     0.10  -0.20  -0.00
     7   1    -0.00  -0.00  -0.66    -0.00   0.00   0.51     0.06  -0.26   0.00
     8   8    -0.00   0.00  -0.04    -0.00  -0.00   0.03    -0.01   0.03   0.00
                     10                     11                     12
                     A'                     A'                     A'
 Frequencies --   1301.2544              1402.2328              1465.5404
 Red. masses --      1.4907                 1.1927                 1.2217
 Frc consts  --      1.4872                 1.3818                 1.5460
 IR Inten    --      2.5608                 6.3800                 9.8727
  Atom  AN      X      Y      Z        X      Y      Z        X      Y      Z
     1   6    -0.12   0.06   0.00     0.02   0.02   0.00    -0.03   0.00   0.00
     2   1    -0.39  -0.35  -0.00     0.21   0.28   0.00     0.28   0.45   0.00
     3   1     0.12   0.02  -0.00     0.40  -0.01  -0.00     0.60  -0.06  -0.00
     4   6     0.10  -0.12  -0.00    -0.06  -0.06  -0.00    -0.07  -0.08  -0.00
     5   1     0.56   0.58   0.00     0.02   0.07   0.00     0.09   0.18   0.00
     6   6    -0.02   0.02  -0.00     0.02  -0.06   0.00    -0.03   0.05  -0.00
     7   1     0.04   0.12   0.00     0.48   0.68   0.00    -0.33  -0.42   0.00
     8   8     0.01   0.01  -0.00    -0.06   0.01  -0.00     0.06   0.01  -0.00
                     13                     14                     15
                     A'                     A'                     A'
 Frequencies --   1697.5504              1803.1406              2888.8759
 Red. masses --      4.1422                 9.5351                 1.0839
 Frc consts  --      7.0328                18.2657                 5.3299
 IR Inten    --      2.4019               208.9001               102.5777
  Atom  AN      X      Y      Z        X      Y      Z        X      Y      Z
     1   6     0.32   0.17  -0.00     0.03   0.01  -0.00     0.00   0.00  -0.00
     2   1    -0.11  -0.56  -0.00    -0.02  -0.06  -0.00    -0.00   0.01  -0.00
     3   1    -0.40   0.30   0.00    -0.03   0.02   0.00     0.01  -0.00   0.00
     4   6    -0.31  -0.21   0.00    -0.09  -0.06   0.00    -0.00  -0.00   0.00
     5   1    -0.01   0.35  -0.00     0.12   0.23  -0.00    -0.01   0.00  -0.00
     6   6    -0.04  -0.01   0.00     0.58   0.38   0.00    -0.07   0.05   0.00
     7   1    -0.10  -0.11  -0.00    -0.01  -0.48  -0.00     0.85  -0.52  -0.00
     8   8     0.06   0.04  -0.00    -0.40  -0.22  -0.00    -0.00  -0.00  -0.00
                     16                     17                     18
                     A'                     A'                     A'
 Frequencies --   3153.1319              3192.7077              3247.0890
 Red. masses --      1.0602                 1.0943                 1.1152
 Frc consts  --      6.2103                 6.5720                 6.9280
 IR Inten    --      5.3956                 2.3647                 6.9182
  Atom  AN      X      Y      Z        X      Y      Z        X      Y      Z
     1   6    -0.07  -0.01  -0.00     0.02  -0.01   0.00     0.03  -0.09   0.00
     2   1     0.67  -0.45   0.00    -0.14   0.10   0.00    -0.46   0.30   0.00
     3   1     0.06   0.57  -0.00     0.01   0.07   0.00     0.10   0.81   0.00
     4   6    -0.00   0.01  -0.00    -0.07   0.04  -0.00     0.01  -0.01  -0.00
     5   1     0.09  -0.06   0.00     0.83  -0.53   0.00    -0.14   0.09   0.00
     6   6    -0.00   0.00   0.00    -0.00  -0.00  -0.00     0.00   0.00   0.00
     7   1     0.01  -0.01   0.00     0.00  -0.00   0.00    -0.00   0.00  -0.00
     8   8    -0.00  -0.00  -0.00     0.00   0.00   0.00    -0.00  -0.00  -0.00

 -------------------
 - Thermochemistry -
 -------------------
 Temperature   298.150 Kelvin.  Pressure   1.00000 Atm.
 Atom     1 has atomic number  6 and mass  12.00000
 Atom     2 has atomic number  1 and mass   1.00783
 Atom     3 has atomic number  1 and mass   1.00783
 Atom     4 has atomic number  6 and mass  12.00000
 Atom     5 has atomic number  1 and mass   1.00783
 Atom     6 has atomic number  6 and mass  12.00000
 Atom     7 has atomic number  1 and mass   1.00783
 Atom     8 has atomic number  8 and mass  15.99491
 Molecular mass:    56.02621 amu.
 Principal axes and moments of inertia in atomic units:
                           1         2         3
     Eigenvalues --    37.62567 389.64696 427.27263
           X            0.62477   0.78081   0.00000
           Y            0.78081  -0.62477   0.00000
           Z           -0.00000  -0.00000   1.00000
 This molecule is an asymmetric top.
 Rotational symmetry number  1.
 Rotational temperatures (Kelvin)      2.30199     0.22229     0.20271
 Rotational constants (GHZ):          47.96568     4.63173     4.22386
 Zero-point vibrational energy     161437.6 (Joules/Mol)
                                   38.58451 (Kcal/Mol)
 Warning -- explicit consideration of   4 degrees of freedom as
           vibrations may cause significant error
 Vibrational temperatures:    251.49   460.26   823.32   879.69  1332.22
          (Kelvin)           1429.47  1472.43  1500.89  1689.64  1872.21
                             2017.50  2108.59  2442.40  2594.32  4156.45
                             4536.65  4593.59  4671.84
 
 Zero-point correction=                           0.061488 (Hartree/Particle)
 Thermal correction to Energy=                    0.065846
 Thermal correction to Enthalpy=                  0.066790
 Thermal correction to Gibbs Free Energy=         0.035209
 Sum of electronic and zero-point Energies=           -191.856527
 Sum of electronic and thermal Energies=              -191.852169
 Sum of electronic and thermal Enthalpies=            -191.851225
 Sum of electronic and thermal Free Energies=         -191.882806
 
                     E (Thermal)             CV                S
                      KCal/Mol        Cal/Mol-Kelvin    Cal/Mol-Kelvin
 Total                   41.319             13.726             66.467
 Electronic               0.000              0.000              0.000
 Translational            0.889              2.981             37.991
 Rotational               0.889              2.981             23.353
 Vibrational             39.541              7.764              5.123
 Vibration     1          0.627              1.873              2.383
 Vibration     2          0.706              1.635              1.311
 Vibration     3          0.928              1.091              0.500
 Vibration     4          0.971              1.008              0.430
                       Q            Log10(Q)             Ln(Q)
 Total Bot       0.638193D-16        -16.195048        -37.290476
 Total V=0       0.122347D+13         12.087593         27.832710
 Vib (Bot)       0.136658D-27        -27.864364        -64.160070
 Vib (Bot)    1  0.115109D+01          0.061110          0.140712
 Vib (Bot)    2  0.587677D+00         -0.230861         -0.531577
 Vib (Bot)    3  0.268362D+00         -0.571279         -1.315418
 Vib (Bot)    4  0.241350D+00         -0.617352         -1.421506
 Vib (V=0)       0.261985D+01          0.418276          0.963116
 Vib (V=0)    1  0.175500D+01          0.244276          0.562466
 Vib (V=0)    2  0.127160D+01          0.104350          0.240275
 Vib (V=0)    3  0.106747D+01          0.028354          0.065288
 Vib (V=0)    4  0.105520D+01          0.023336          0.053733
 Electronic      0.100000D+01          0.000000          0.000000
 Translational   0.164832D+08          7.217041         16.617851
 Rotational      0.283319D+05          4.452276         10.251744
                           ----------------------------
                           ! Normal Mode     1        !
 --------------------------                            --------------------------
 ! Name  Definition              Value          Relative Weight (%)             !
 --------------------------------------------------------------------------------
 ! R1    R(1,2)                  0.0                     0.0                    !
 ! R2    R(1,3)                  0.0                     0.0                    !
 ! R3    R(1,4)                  0.0                     0.0                    !
 ! R4    R(4,5)                  0.0                     0.0                    !
 ! R5    R(4,6)                  0.0                     0.0                    !
 ! R6    R(6,7)                  0.0                     0.0                    !
 ! R7    R(6,8)                  0.0                     0.0                    !
 ! A1    A(2,1,3)                0.0                     0.0                    !
 ! A2    A(2,1,4)                0.0                     0.0                    !
 ! A3    A(3,1,4)                0.0                     0.0                    !
 ! A4    A(1,4,5)                0.0                     0.0                    !
 ! A5    A(1,4,6)                0.0                     0.0                    !
 ! A6    A(5,4,6)                0.0                     0.0                    !
 ! A7    A(4,6,7)                0.0                     0.0                    !
 ! A8    A(4,6,8)                0.0                     0.0                    !
 ! A9    A(7,6,8)                0.0                     0.0                    !
 ! D1    D(2,1,4,5)             -0.0457                  2.7                    !
 ! D2    D(2,1,4,6)              0.1045                  6.2                    !
 ! D3    D(3,1,4,5)             -0.0225                  1.3                    !
 ! D4    D(3,1,4,6)              0.1276                  7.6                    !
 ! D5    D(1,4,6,7)             -0.3835                 22.9                    !
 ! D6    D(1,4,6,8)             -0.4469                 26.6                    !
 ! D7    D(5,4,6,7)             -0.2418                 14.4                    !
 ! D8    D(5,4,6,8)             -0.3052                 18.2                    !
 --------------------------------------------------------------------------------
                           ----------------------------
                           ! Normal Mode     2        !
 --------------------------                            --------------------------
 ! Name  Definition              Value          Relative Weight (%)             !
 --------------------------------------------------------------------------------
 ! R1    R(1,2)                  0.0016                  0.2                    !
 ! R2    R(1,3)                 -0.0021                  0.3                    !
 ! R3    R(1,4)                  0.0004                  0.1                    !
 ! R4    R(4,5)                 -0.0032                  0.4                    !
 ! R5    R(4,6)                  0.0047                  0.6                    !
 ! R6    R(6,7)                  0.0063                  0.9                    !
 ! R7    R(6,8)                 -0.0093                  1.3                    !
 ! A1    A(2,1,3)               -0.0009                  0.1                    !
 ! A2    A(2,1,4)               -0.0514                  7.0                    !
 ! A3    A(3,1,4)                0.0523                  7.1                    !
 ! A4    A(1,4,5)                0.0639                  8.7                    !
 ! A5    A(1,4,6)               -0.1878                 25.5                    !
 ! A6    A(5,4,6)                0.1238                 16.8                    !
 ! A7    A(4,6,7)               -0.0913                 12.4                    !
 ! A8    A(4,6,8)                0.1142                 15.5                    !
 ! A9    A(7,6,8)               -0.0228                  3.1                    !
 ! D1    D(2,1,4,5)              0.0                     0.0                    !
 ! D2    D(2,1,4,6)              0.0                     0.0                    !
 ! D3    D(3,1,4,5)              0.0                     0.0                    !
 ! D4    D(3,1,4,6)              0.0                     0.0                    !
 ! D5    D(1,4,6,7)              0.0                     0.0                    !
 ! D6    D(1,4,6,8)              0.0                     0.0                    !
 ! D7    D(5,4,6,7)              0.0                     0.0                    !
 ! D8    D(5,4,6,8)              0.0                     0.0                    !
 --------------------------------------------------------------------------------
                           ----------------------------
                           ! Normal Mode     3        !
 --------------------------                            --------------------------
 ! Name  Definition              Value          Relative Weight (%)             !
 --------------------------------------------------------------------------------
 ! R1    R(1,2)                 -0.0012                  0.1                    !
 ! R2    R(1,3)                 -0.0069                  0.5                    !
 ! R3    R(1,4)                 -0.0608                  4.2                    !
 ! R4    R(4,5)                 -0.0085                  0.6                    !
 ! R5    R(4,6)                 -0.1848                 12.7                    !
 ! R6    R(6,7)                 -0.0027                  0.2                    !
 ! R7    R(6,8)                 -0.0309                  2.1                    !
 ! A1    A(2,1,3)                0.0122                  0.8                    !
 ! A2    A(2,1,4)               -0.1038                  7.1                    !
 ! A3    A(3,1,4)                0.0915                  6.3                    !
 ! A4    A(1,4,5)                0.1827                 12.6                    !
 ! A5    A(1,4,6)               -0.1626                 11.2                    !
 ! A6    A(5,4,6)               -0.0201                  1.4                    !
 ! A7    A(4,6,7)                0.1797                 12.4                    !
 ! A8    A(4,6,8)               -0.2929                 20.1                    !
 ! A9    A(7,6,8)                0.1132                  7.8                    !
 ! D1    D(2,1,4,5)              0.0                     0.0                    !
 ! D2    D(2,1,4,6)              0.0                     0.0                    !
 ! D3    D(3,1,4,5)              0.0                     0.0                    !
 ! D4    D(3,1,4,6)              0.0                     0.0                    !
 ! D5    D(1,4,6,7)              0.0                     0.0                    !
 ! D6    D(1,4,6,8)              0.0                     0.0                    !
 ! D7    D(5,4,6,7)              0.0                     0.0                    !
 ! D8    D(5,4,6,8)              0.0                     0.0                    !
 --------------------------------------------------------------------------------
                           ----------------------------
                           ! Normal Mode     4        !
 --------------------------                            --------------------------
 ! Name  Definition              Value          Relative Weight (%)             !
 --------------------------------------------------------------------------------
 ! R1    R(1,2)                  0.0                     0.0                    !
 ! R2    R(1,3)                  0.0                     0.0                    !
 ! R3    R(1,4)                  0.0                     0.0                    !
 ! R4    R(4,5)                  0.0                     0.0                    !
 ! R5    R(4,6)                  0.0                     0.0                    !
 ! R6    R(6,7)                  0.0                     0.0                    !
 ! R7    R(6,8)                  0.0                     0.0                    !
 ! A1    A(2,1,3)                0.0                     0.0                    !
 ! A2    A(2,1,4)                0.0                     0.0                    !
 ! A3    A(3,1,4)                0.0                     0.0                    !
 ! A4    A(1,4,5)                0.0                     0.0                    !
 ! A5    A(1,4,6)                0.0                     0.0                    !
 ! A6    A(5,4,6)                0.0                     0.0                    !
 ! A7    A(4,6,7)                0.0                     0.0                    !
 ! A8    A(4,6,8)                0.0                     0.0                    !
 ! A9    A(7,6,8)                0.0                     0.0                    !
 ! D1    D(2,1,4,5)              0.0261                  1.4                    !
 ! D2    D(2,1,4,6)              0.4244                 23.1                    !
 ! D3    D(3,1,4,5)              0.028                   1.5                    !
 ! D4    D(3,1,4,6)              0.4263                 23.2                    !
 ! D5    D(1,4,6,7)              0.0913                  5.0                    !
 ! D6    D(1,4,6,8)             -0.0426                  2.3                    !
 ! D7    D(5,4,6,7)              0.4671                 25.4                    !
 ! D8    D(5,4,6,8)              0.3332                 18.1                    !
 --------------------------------------------------------------------------------
                           ----------------------------
                           ! Normal Mode     5        !
 --------------------------                            --------------------------
 ! Name  Definition              Value          Relative Weight (%)             !
 --------------------------------------------------------------------------------
 ! R1    R(1,2)                  0.0106                  0.7                    !
 ! R2    R(1,3)                  0.0004                  0.0                    !
 ! R3    R(1,4)                  0.0301                  2.0                    !
 ! R4    R(4,5)                  0.0058                  0.4                    !
 ! R5    R(4,6)                  0.2266                 14.9                    !
 ! R6    R(6,7)                 -0.0008                  0.1                    !
 ! R7    R(6,8)                  0.0125                  0.8                    !
 ! A1    A(2,1,3)               -0.0346                  2.3                    !
 ! A2    A(2,1,4)               -0.3265                 21.4                    !
 ! A3    A(3,1,4)                0.3611                 23.7                    !
 ! A4    A(1,4,5)                0.1579                 10.3                    !
 ! A5    A(1,4,6)               -0.0158                  1.0                    !
 ! A6    A(5,4,6)               -0.1421                  9.3                    !
 ! A7    A(4,6,7)                0.1002                  6.6                    !
 ! A8    A(4,6,8)               -0.0973                  6.4                    !
 ! A9    A(7,6,8)               -0.0029                  0.2                    !
 ! D1    D(2,1,4,5)              0.0                     0.0                    !
 ! D2    D(2,1,4,6)              0.0                     0.0                    !
 ! D3    D(3,1,4,5)              0.0                     0.0                    !
 ! D4    D(3,1,4,6)              0.0                     0.0                    !
 ! D5    D(1,4,6,7)              0.0                     0.0                    !
 ! D6    D(1,4,6,8)              0.0                     0.0                    !
 ! D7    D(5,4,6,7)              0.0                     0.0                    !
 ! D8    D(5,4,6,8)              0.0                     0.0                    !
 --------------------------------------------------------------------------------
                           ----------------------------
                           ! Normal Mode     6        !
 --------------------------                            --------------------------
 ! Name  Definition              Value          Relative Weight (%)             !
 --------------------------------------------------------------------------------
 ! R1    R(1,2)                  0.0                     0.0                    !
 ! R2    R(1,3)                  0.0                     0.0                    !
 ! R3    R(1,4)                  0.0                     0.0                    !
 ! R4    R(4,5)                  0.0                     0.0                    !
 ! R5    R(4,6)                  0.0                     0.0                    !
 ! R6    R(6,7)                  0.0                     0.0                    !
 ! R7    R(6,8)                  0.0                     0.0                    !
 ! A1    A(2,1,3)                0.0                     0.0                    !
 ! A2    A(2,1,4)                0.0                     0.0                    !
 ! A3    A(3,1,4)                0.0                     0.0                    !
 ! A4    A(1,4,5)                0.0                     0.0                    !
 ! A5    A(1,4,6)                0.0                     0.0                    !
 ! A6    A(5,4,6)                0.0                     0.0                    !
 ! A7    A(4,6,7)                0.0                     0.0                    !
 ! A8    A(4,6,8)                0.0                     0.0                    !
 ! A9    A(7,6,8)                0.0                     0.0                    !
 ! D1    D(2,1,4,5)             -0.4734                 19.9                    !
 ! D2    D(2,1,4,6)             -0.5698                 23.9                    !
 ! D3    D(3,1,4,5)              0.6009                 25.2                    !
 ! D4    D(3,1,4,6)              0.5044                 21.2                    !
 ! D5    D(1,4,6,7)              0.0015                  0.1                    !
 ! D6    D(1,4,6,8)              0.1165                  4.9                    !
 ! D7    D(5,4,6,7)             -0.0896                  3.8                    !
 ! D8    D(5,4,6,8)              0.0254                  1.1                    !
 --------------------------------------------------------------------------------
                           ----------------------------
                           ! Normal Mode     7        !
 --------------------------                            --------------------------
 ! Name  Definition              Value          Relative Weight (%)             !
 --------------------------------------------------------------------------------
 ! R1    R(1,2)                  0.0                     0.0                    !
 ! R2    R(1,3)                  0.0                     0.0                    !
 ! R3    R(1,4)                  0.0                     0.0                    !
 ! R4    R(4,5)                  0.0                     0.0                    !
 ! R5    R(4,6)                  0.0                     0.0                    !
 ! R6    R(6,7)                  0.0                     0.0                    !
 ! R7    R(6,8)                  0.0                     0.0                    !
 ! A1    A(2,1,3)                0.0                     0.0                    !
 ! A2    A(2,1,4)                0.0                     0.0                    !
 ! A3    A(3,1,4)                0.0                     0.0                    !
 ! A4    A(1,4,5)                0.0                     0.0                    !
 ! A5    A(1,4,6)                0.0                     0.0                    !
 ! A6    A(5,4,6)                0.0                     0.0                    !
 ! A7    A(4,6,7)                0.0                     0.0                    !
 ! A8    A(4,6,8)                0.0                     0.0                    !
 ! A9    A(7,6,8)                0.0                     0.0                    !
 ! D1    D(2,1,4,5)             -0.5374                 19.1                    !
 ! D2    D(2,1,4,6)              0.1586                  5.6                    !
 ! D3    D(3,1,4,5)             -0.7175                 25.5                    !
 ! D4    D(3,1,4,6)             -0.0215                  0.8                    !
 ! D5    D(1,4,6,7)             -0.6434                 22.9                    !
 ! D6    D(1,4,6,8)              0.0334                  1.2                    !
 ! D7    D(5,4,6,7)              0.0133                  0.5                    !
 ! D8    D(5,4,6,8)              0.6901                 24.5                    !
 --------------------------------------------------------------------------------
                           ----------------------------
                           ! Normal Mode     8        !
 --------------------------                            --------------------------
 ! Name  Definition              Value          Relative Weight (%)             !
 --------------------------------------------------------------------------------
 ! R1    R(1,2)                  0.0                     0.0                    !
 ! R2    R(1,3)                  0.0                     0.0                    !
 ! R3    R(1,4)                  0.0                     0.0                    !
 ! R4    R(4,5)                  0.0                     0.0                    !
 ! R5    R(4,6)                  0.0                     0.0                    !
 ! R6    R(6,7)                  0.0                     0.0                    !
 ! R7    R(6,8)                  0.0                     0.0                    !
 ! A1    A(2,1,3)                0.0                     0.0                    !
 ! A2    A(2,1,4)                0.0                     0.0                    !
 ! A3    A(3,1,4)                0.0                     0.0                    !
 ! A4    A(1,4,5)                0.0                     0.0                    !
 ! A5    A(1,4,6)                0.0                     0.0                    !
 ! A6    A(5,4,6)                0.0                     0.0                    !
 ! A7    A(4,6,7)                0.0                     0.0                    !
 ! A8    A(4,6,8)                0.0                     0.0                    !
 ! A9    A(7,6,8)                0.0                     0.0                    !
 ! D1    D(2,1,4,5)             -0.6494                 20.9                    !
 ! D2    D(2,1,4,6)             -0.3014                  9.7                    !
 ! D3    D(3,1,4,5)             -0.5608                 18.1                    !
 ! D4    D(3,1,4,6)             -0.2129                  6.9                    !
 ! D5    D(1,4,6,7)              0.3623                 11.7                    !
 ! D6    D(1,4,6,8)             -0.0864                  2.8                    !
 ! D7    D(5,4,6,7)              0.6906                 22.2                    !
 ! D8    D(5,4,6,8)              0.2419                  7.8                    !
 --------------------------------------------------------------------------------
                           ----------------------------
                           ! Normal Mode     9        !
 --------------------------                            --------------------------
 ! Name  Definition              Value          Relative Weight (%)             !
 --------------------------------------------------------------------------------
 ! R1    R(1,2)                 -0.006                   0.3                    !
 ! R2    R(1,3)                  0.0041                  0.2                    !
 ! R3    R(1,4)                 -0.0299                  1.4                    !
 ! R4    R(4,5)                  0.0038                  0.2                    !
 ! R5    R(4,6)                  0.3429                 16.0                    !
 ! R6    R(6,7)                  0.0058                  0.3                    !
 ! R7    R(6,8)                 -0.0198                  0.9                    !
 ! A1    A(2,1,3)               -0.0159                  0.7                    !
 ! A2    A(2,1,4)                0.2406                 11.2                    !
 ! A3    A(3,1,4)               -0.2247                 10.5                    !
 ! A4    A(1,4,5)               -0.2607                 12.2                    !
 ! A5    A(1,4,6)               -0.1737                  8.1                    !
 ! A6    A(5,4,6)                0.4344                 20.3                    !
 ! A7    A(4,6,7)                0.1129                  5.3                    !
 ! A8    A(4,6,8)               -0.1903                  8.9                    !
 ! A9    A(7,6,8)                0.0774                  3.6                    !
 ! D1    D(2,1,4,5)              0.0                     0.0                    !
 ! D2    D(2,1,4,6)              0.0                     0.0                    !
 ! D3    D(3,1,4,5)              0.0                     0.0                    !
 ! D4    D(3,1,4,6)              0.0                     0.0                    !
 ! D5    D(1,4,6,7)              0.0                     0.0                    !
 ! D6    D(1,4,6,8)              0.0                     0.0                    !
 ! D7    D(5,4,6,7)              0.0                     0.0                    !
 ! D8    D(5,4,6,8)              0.0                     0.0                    !
 --------------------------------------------------------------------------------
                           ----------------------------
                           ! Normal Mode    10        !
 --------------------------                            --------------------------
 ! Name  Definition              Value          Relative Weight (%)             !
 --------------------------------------------------------------------------------
 ! R1    R(1,2)                 -0.002                   0.1                    !
 ! R2    R(1,3)                 -0.0123                  0.6                    !
 ! R3    R(1,4)                 -0.1171                  5.3                    !
 ! R4    R(4,5)                 -0.0165                  0.7                    !
 ! R5    R(4,6)                 -0.1317                  6.0                    !
 ! R6    R(6,7)                  0.0047                  0.2                    !
 ! R7    R(6,8)                 -0.0179                  0.8                    !
 ! A1    A(2,1,3)                0.1172                  5.3                    !
 ! A2    A(2,1,4)               -0.3415                 15.5                    !
 ! A3    A(3,1,4)                0.2243                 10.2                    !
 ! A4    A(1,4,5)               -0.5134                 23.2                    !
 ! A5    A(1,4,6)                0.1485                  6.7                    !
 ! A6    A(5,4,6)                0.3649                 16.5                    !
 ! A7    A(4,6,7)               -0.0987                  4.5                    !
 ! A8    A(4,6,8)                0.0561                  2.5                    !
 ! A9    A(7,6,8)                0.0426                  1.9                    !
 ! D1    D(2,1,4,5)              0.0                     0.0                    !
 ! D2    D(2,1,4,6)              0.0                     0.0                    !
 ! D3    D(3,1,4,5)              0.0                     0.0                    !
 ! D4    D(3,1,4,6)              0.0                     0.0                    !
 ! D5    D(1,4,6,7)              0.0                     0.0                    !
 ! D6    D(1,4,6,8)              0.0                     0.0                    !
 ! D7    D(5,4,6,7)              0.0                     0.0                    !
 ! D8    D(5,4,6,8)              0.0                     0.0                    !
 --------------------------------------------------------------------------------
                           ----------------------------
                           ! Normal Mode    11        !
 --------------------------                            --------------------------
 ! Name  Definition              Value          Relative Weight (%)             !
 --------------------------------------------------------------------------------
 ! R1    R(1,2)                  0.0155                  0.8                    !
 ! R2    R(1,3)                  0.0128                  0.6                    !
 ! R3    R(1,4)                  0.1061                  5.3                    !
 ! R4    R(4,5)                  0.0047                  0.2                    !
 ! R5    R(4,6)                 -0.009                   0.4                    !
 ! R6    R(6,7)                  0.0158                  0.8                    !
 ! R7    R(6,8)                  0.0377                  1.9                    !
 ! A1    A(2,1,3)               -0.3436                 17.0                    !
 ! A2    A(2,1,4)                0.1423                  7.1                    !
 ! A3    A(3,1,4)                0.2013                  10.0                   !
 ! A4    A(1,4,5)               -0.0904                  4.5                    !
 ! A5    A(1,4,6)               -0.0158                  0.8                    !
 ! A6    A(5,4,6)                0.1062                  5.3                    !
 ! A7    A(4,6,7)               -0.383                  19.0                    !
 ! A8    A(4,6,8)               -0.0748                  3.7                    !
 ! A9    A(7,6,8)                0.4577                 22.7                    !
 ! D1    D(2,1,4,5)              0.0                     0.0                    !
 ! D2    D(2,1,4,6)              0.0                     0.0                    !
 ! D3    D(3,1,4,5)              0.0                     0.0                    !
 ! D4    D(3,1,4,6)              0.0                     0.0                    !
 ! D5    D(1,4,6,7)              0.0                     0.0                    !
 ! D6    D(1,4,6,8)              0.0                     0.0                    !
 ! D7    D(5,4,6,7)              0.0                     0.0                    !
 ! D8    D(5,4,6,8)              0.0                     0.0                    !
 --------------------------------------------------------------------------------
                           ----------------------------
                           ! Normal Mode    12        !
 --------------------------                            --------------------------
 ! Name  Definition              Value          Relative Weight (%)             !
 --------------------------------------------------------------------------------
 ! R1    R(1,2)                  0.0107                  0.4                    !
 ! R2    R(1,3)                  0.0152                  0.6                    !
 ! R3    R(1,4)                  0.0692                  2.9                    !
 ! R4    R(4,5)                  0.0008                  0.0                    !
 ! R5    R(4,6)                 -0.1311                  5.5                    !
 ! R6    R(6,7)                 -0.0256                  1.1                    !
 ! R7    R(6,8)                 -0.0509                  2.1                    !
 ! A1    A(2,1,3)               -0.5776                 24.1                    !
 ! A2    A(2,1,4)                0.2478                 10.3                    !
 ! A3    A(3,1,4)                0.3297                 13.7                    !
 ! A4    A(1,4,5)               -0.1683                  7.0                    !
 ! A5    A(1,4,6)                0.0086                  0.4                    !
 ! A6    A(5,4,6)                0.1596                  6.7                    !
 ! A7    A(4,6,7)                0.2805                 11.7                    !
 ! A8    A(4,6,8)                0.0214                  0.9                    !
 ! A9    A(7,6,8)               -0.302                  12.6                    !
 ! D1    D(2,1,4,5)              0.0                     0.0                    !
 ! D2    D(2,1,4,6)              0.0                     0.0                    !
 ! D3    D(3,1,4,5)              0.0                     0.0                    !
 ! D4    D(3,1,4,6)              0.0                     0.0                    !
 ! D5    D(1,4,6,7)              0.0                     0.0                    !
 ! D6    D(1,4,6,8)              0.0                     0.0                    !
 ! D7    D(5,4,6,7)              0.0                     0.0                    !
 ! D8    D(5,4,6,8)              0.0                     0.0                    !
 --------------------------------------------------------------------------------
                           ----------------------------
                           ! Normal Mode    13        !
 --------------------------                            --------------------------
 ! Name  Definition              Value          Relative Weight (%)             !
 --------------------------------------------------------------------------------
 ! R1    R(1,2)                  0.0364                  0.9                    !
 ! R2    R(1,3)                  0.0417                  1.1                    !
 ! R3    R(1,4)                  0.7394                 19.2                    !
 ! R4    R(4,5)                  0.0474                  1.2                    !
 ! R5    R(4,6)                 -0.2296                  6.0                    !
 ! R6    R(6,7)                 -0.0098                  0.3                    !
 ! R7    R(6,8)                 -0.1071                  2.8                    !
 ! A1    A(2,1,3)                0.7703                 20.0                    !
 ! A2    A(2,1,4)               -0.4398                 11.4                    !
 ! A3    A(3,1,4)               -0.3306                  8.6                    !
 ! A4    A(1,4,5)               -0.337                   8.8                    !
 ! A5    A(1,4,6)               -0.0632                  1.6                    !
 ! A6    A(5,4,6)                0.4002                 10.4                    !
 ! A7    A(4,6,7)                0.1471                  3.8                    !
 ! A8    A(4,6,8)               -0.0899                  2.3                    !
 ! A9    A(7,6,8)               -0.0572                  1.5                    !
 ! D1    D(2,1,4,5)              0.0                     0.0                    !
 ! D2    D(2,1,4,6)              0.0                     0.0                    !
 ! D3    D(3,1,4,5)              0.0                     0.0                    !
 ! D4    D(3,1,4,6)              0.0                     0.0                    !
 ! D5    D(1,4,6,7)              0.0                     0.0                    !
 ! D6    D(1,4,6,8)              0.0                     0.0                    !
 ! D7    D(5,4,6,7)              0.0                     0.0                    !
 ! D8    D(5,4,6,8)              0.0                     0.0                    !
 --------------------------------------------------------------------------------
                           ----------------------------
                           ! Normal Mode    14        !
 --------------------------                            --------------------------
 ! Name  Definition              Value          Relative Weight (%)             !
 --------------------------------------------------------------------------------
 ! R1    R(1,2)                 -0.0074                  0.2                    !
 ! R2    R(1,3)                  0.002                   0.0                    !
 ! R3    R(1,4)                  0.1391                  3.3                    !
 ! R4    R(4,5)                 -0.0208                  0.5                    !
 ! R5    R(4,6)                 -0.5023                 11.8                    !
 ! R6    R(6,7)                 -0.0772                  1.8                    !
 ! R7    R(6,8)                  1.1464                 26.9                    !
 ! A1    A(2,1,3)                0.0684                  1.6                    !
 ! A2    A(2,1,4)               -0.0445                  1.0                    !
 ! A3    A(3,1,4)               -0.024                   0.6                    !
 ! A4    A(1,4,5)               -0.1786                  4.2                    !
 ! A5    A(1,4,6)               -0.2189                  5.1                    !
 ! A6    A(5,4,6)                0.3975                  9.3                    !
 ! A7    A(4,6,7)                0.7142                 16.8                    !
 ! A8    A(4,6,8)               -0.1985                  4.7                    !
 ! A9    A(7,6,8)               -0.5157                 12.1                    !
 ! D1    D(2,1,4,5)              0.0                     0.0                    !
 ! D2    D(2,1,4,6)              0.0                     0.0                    !
 ! D3    D(3,1,4,5)              0.0                     0.0                    !
 ! D4    D(3,1,4,6)              0.0                     0.0                    !
 ! D5    D(1,4,6,7)              0.0                     0.0                    !
 ! D6    D(1,4,6,8)              0.0                     0.0                    !
 ! D7    D(5,4,6,7)              0.0                     0.0                    !
 ! D8    D(5,4,6,8)              0.0                     0.0                    !
 --------------------------------------------------------------------------------
                           ----------------------------
                           ! Normal Mode    15        !
 --------------------------                            --------------------------
 ! Name  Definition              Value          Relative Weight (%)             !
 --------------------------------------------------------------------------------
 ! R1    R(1,2)                 -0.0103                  0.8                    !
 ! R2    R(1,3)                 -0.0032                  0.2                    !
 ! R3    R(1,4)                  0.0037                  0.3                    !
 ! R4    R(4,5)                  0.0069                  0.5                    !
 ! R5    R(4,6)                 -0.0429                  3.2                    !
 ! R6    R(6,7)                  1.0789                 79.3                    !
 ! R7    R(6,8)                 -0.0358                  2.6                    !
 ! A1    A(2,1,3)               -0.0051                  0.4                    !
 ! A2    A(2,1,4)                0.0021                  0.2                    !
 ! A3    A(3,1,4)                0.0031                  0.2                    !
 ! A4    A(1,4,5)               -0.0022                  0.2                    !
 ! A5    A(1,4,6)                0.0263                  1.9                    !
 ! A6    A(5,4,6)               -0.0241                  1.8                    !
 ! A7    A(4,6,7)               -0.01                    0.7                    !
 ! A8    A(4,6,8)                0.0582                  4.3                    !
 ! A9    A(7,6,8)               -0.0482                  3.5                    !
 ! D1    D(2,1,4,5)              0.0                     0.0                    !
 ! D2    D(2,1,4,6)              0.0                     0.0                    !
 ! D3    D(3,1,4,5)              0.0                     0.0                    !
 ! D4    D(3,1,4,6)              0.0                     0.0                    !
 ! D5    D(1,4,6,7)              0.0                     0.0                    !
 ! D6    D(1,4,6,8)              0.0                     0.0                    !
 ! D7    D(5,4,6,7)              0.0                     0.0                    !
 ! D8    D(5,4,6,8)              0.0                     0.0                    !
 --------------------------------------------------------------------------------
                           ----------------------------
                           ! Normal Mode    16        !
 --------------------------                            --------------------------
 ! Name  Definition              Value          Relative Weight (%)             !
 --------------------------------------------------------------------------------
 ! R1    R(1,2)                  0.8585                 48.9                    !
 ! R2    R(1,3)                  0.5937                 33.8                    !
 ! R3    R(1,4)                 -0.0687                  3.9                    !
 ! R4    R(4,5)                 -0.1123                  6.4                    !
 ! R5    R(4,6)                  0.0066                  0.4                    !
 ! R6    R(6,7)                  0.0111                  0.6                    !
 ! R7    R(6,8)                  0.0011                  0.1                    !
 ! A1    A(2,1,3)               -0.0453                  2.6                    !
 ! A2    A(2,1,4)                0.0167                  1.0                    !
 ! A3    A(3,1,4)                0.0286                  1.6                    !
 ! A4    A(1,4,5)                0.0002                  0.0                    !
 ! A5    A(1,4,6)                0.0028                  0.2                    !
 ! A6    A(5,4,6)               -0.0031                  0.2                    !
 ! A7    A(4,6,7)                0.0028                  0.2                    !
 ! A8    A(4,6,8)                0.0                     0.0                    !
 ! A9    A(7,6,8)               -0.0027                  0.2                    !
 ! D1    D(2,1,4,5)              0.0                     0.0                    !
 ! D2    D(2,1,4,6)              0.0                     0.0                    !
 ! D3    D(3,1,4,5)              0.0                     0.0                    !
 ! D4    D(3,1,4,6)              0.0                     0.0                    !
 ! D5    D(1,4,6,7)              0.0                     0.0                    !
 ! D6    D(1,4,6,8)              0.0                     0.0                    !
 ! D7    D(5,4,6,7)              0.0                     0.0                    !
 ! D8    D(5,4,6,8)              0.0                     0.0                    !
 --------------------------------------------------------------------------------
                           ----------------------------
                           ! Normal Mode    17        !
 --------------------------                            --------------------------
 ! Name  Definition              Value          Relative Weight (%)             !
 --------------------------------------------------------------------------------
 ! R1    R(1,2)                 -0.1944                 11.3                    !
 ! R2    R(1,3)                  0.084                   4.9                    !
 ! R3    R(1,4)                  0.0595                  3.5                    !
 ! R4    R(4,5)                 -1.064                  61.9                    !
 ! R5    R(4,6)                  0.038                   2.2                    !
 ! R6    R(6,7)                  0.0053                  0.3                    !
 ! R7    R(6,8)                 -0.0037                  0.2                    !
 ! A1    A(2,1,3)                0.009                   0.5                    !
 ! A2    A(2,1,4)                0.0356                  2.1                    !
[...]
             11           12           13           14           15
     1            1            1            5            4            4
     2            4            4            4            6            6
     3            5            6            6            7            8
     4            0            0            0            0            0
             16           17           18           19           20
     1            7            2            2            3            3
     2            6            1            1            1            1
     3            8            4            4            4            4
     4            0            5            6            5            6
             21           22           23           24
     1            1            1            5            5
     2            4            4            4            4
     3            6            6            6            6
     4            7            8            7            8
 B Matrix in FormBX:
                 1             2             3             4             5 
      1  -0.832754D+00 -0.120851D+00  0.903295D+00  0.846126D+00  0.994236D-01
      2   0.553644D+00 -0.992671D+00  0.429020D+00 -0.532982D+00  0.995045D+00
      3   0.000000D+00  0.000000D+00  0.000000D+00  0.000000D+00  0.000000D+00
      4   0.832754D+00  0.120851D+00 -0.903295D+00 -0.846126D+00 -0.994236D-01
      5  -0.553644D+00  0.992671D+00 -0.429020D+00  0.532982D+00 -0.995045D+00
      6   0.000000D+00  0.000000D+00  0.000000D+00  0.000000D+00  0.000000D+00
      7   0.000000D+00  0.000000D+00  0.000000D+00  0.000000D+00  0.000000D+00
      8   0.000000D+00  0.000000D+00  0.000000D+00  0.000000D+00  0.000000D+00
      9   0.000000D+00  0.000000D+00  0.000000D+00  0.000000D+00  0.000000D+00
     10   0.000000D+00  0.000000D+00  0.000000D+00  0.000000D+00  0.000000D+00
     11   0.000000D+00  0.000000D+00  0.000000D+00  0.000000D+00  0.000000D+00
     12   0.000000D+00  0.000000D+00  0.000000D+00  0.000000D+00  0.000000D+00
                 6             7             8             9            10 
      1  -0.864010D+00  0.878778D+00 -0.269285D+00  0.269285D+00  0.484105D+00
      2   0.503475D+00  0.477232D+00 -0.405040D+00  0.405040D+00 -0.589367D-01
      3   0.000000D+00  0.000000D+00  0.000000D+00  0.000000D+00  0.000000D+00
      4   0.864010D+00 -0.878778D+00  0.753389D+00 -0.995352D-01 -0.653854D+00
      5  -0.503475D+00 -0.477232D+00  0.346103D+00 -0.762445D+00  0.416342D+00
      6   0.000000D+00  0.000000D+00  0.000000D+00  0.000000D+00  0.000000D+00
      7   0.000000D+00  0.000000D+00 -0.484105D+00 -0.169750D+00  0.169750D+00
      8   0.000000D+00  0.000000D+00  0.589367D-01  0.357405D+00 -0.357405D+00
      9   0.000000D+00  0.000000D+00  0.000000D+00  0.000000D+00  0.000000D+00
     10   0.000000D+00  0.000000D+00  0.000000D+00  0.000000D+00  0.000000D+00
     11   0.000000D+00  0.000000D+00  0.000000D+00  0.000000D+00  0.000000D+00
     12   0.000000D+00  0.000000D+00  0.000000D+00  0.000000D+00  0.000000D+00
                11            12            13            14            15 
      1   0.169750D+00 -0.169750D+00  0.259433D+00 -0.356969D+00  0.356969D+00
      2  -0.357405D+00  0.357405D+00  0.411858D+00  0.356679D-01 -0.356679D-01
      3   0.000000D+00  0.000000D+00  0.000000D+00  0.000000D+00  0.000000D+00
      4   0.896834D-01  0.526719D+00 -0.616402D+00  0.596111D+00 -0.564747D+00
      5   0.769263D+00 -0.393073D+00 -0.376190D+00  0.374721D+00  0.418272D+00
      6   0.000000D+00  0.000000D+00  0.000000D+00  0.000000D+00  0.000000D+00
      7  -0.259433D+00 -0.356969D+00  0.356969D+00 -0.239142D+00  0.207778D+00
      8  -0.411858D+00  0.356679D-01 -0.356679D-01 -0.410389D+00 -0.382604D+00
      9   0.000000D+00  0.000000D+00  0.000000D+00  0.000000D+00  0.000000D+00
     10   0.000000D+00  0.000000D+00  0.000000D+00  0.000000D+00  0.000000D+00
     11   0.000000D+00  0.000000D+00  0.000000D+00  0.000000D+00  0.000000D+00
     12   0.000000D+00  0.000000D+00  0.000000D+00  0.000000D+00  0.000000D+00
                16            17            18            19            20 
      1   0.239142D+00  0.000000D+00  0.000000D+00  0.000000D+00  0.000000D+00
      2   0.410389D+00  0.000000D+00  0.000000D+00  0.000000D+00  0.000000D+00
      3   0.000000D+00 -0.567299D+00 -0.567299D+00  0.577253D+00  0.577253D+00
      4  -0.313637D-01  0.000000D+00  0.000000D+00  0.000000D+00  0.000000D+00
      5  -0.792992D+00  0.000000D+00  0.000000D+00  0.000000D+00  0.000000D+00
      6   0.000000D+00  0.553850D+00  0.104362D+01 -0.107881D+01 -0.589046D+00
      7  -0.207778D+00  0.000000D+00  0.000000D+00  0.000000D+00  0.000000D+00
      8   0.382604D+00  0.000000D+00  0.000000D+00  0.000000D+00  0.000000D+00
      9   0.000000D+00  0.589871D+00 -0.895333D+00  0.107798D+01 -0.407223D+00
     10   0.000000D+00  0.000000D+00  0.000000D+00  0.000000D+00  0.000000D+00
     11   0.000000D+00  0.000000D+00  0.000000D+00  0.000000D+00  0.000000D+00
     12   0.000000D+00 -0.576422D+00  0.419016D+00 -0.576422D+00  0.419016D+00
                21            22            23            24 
      1   0.000000D+00  0.000000D+00  0.000000D+00  0.000000D+00
      2   0.000000D+00  0.000000D+00  0.000000D+00  0.000000D+00
      3  -0.462140D+00 -0.462140D+00  0.543908D+00  0.543908D+00
      4   0.000000D+00  0.000000D+00  0.000000D+00  0.000000D+00
      5   0.000000D+00  0.000000D+00  0.000000D+00  0.000000D+00
      6   0.842320D+00  0.434745D+00 -0.559109D+00 -0.966684D+00
      7   0.000000D+00  0.000000D+00  0.000000D+00  0.000000D+00
      8   0.000000D+00  0.000000D+00  0.000000D+00  0.000000D+00
      9  -0.902261D+00  0.553870D+00 -0.506880D+00  0.949251D+00
     10   0.000000D+00  0.000000D+00  0.000000D+00  0.000000D+00
     11   0.000000D+00  0.000000D+00  0.000000D+00  0.000000D+00
     12   0.522081D+00 -0.526475D+00  0.522081D+00 -0.526475D+00
 Iteration  1 RMS(Cart)=  0.00056450 RMS(Int)=  0.00000012
 Iteration  2 RMS(Cart)=  0.00000015 RMS(Int)=  0.00000000
 Input Coordinates in SymCor: 
                 1             2             3             4             5 
      1   0.228264D+01  0.399424D+01  0.253146D+01 -0.701439D-03 -0.173859D+01
      2   0.244283D+01  0.130382D+01  0.447823D+01  0.135927D+01  0.245461D+01
      3   0.000000D+00  0.000000D+00  0.000000D+00  0.000000D+00  0.000000D+00
                 6             7             8 
      1  -0.276942D+00  0.154237D+01 -0.229476D+01
      2  -0.141444D+01 -0.247337D+01 -0.251168D+01
      3   0.000000D+00  0.000000D+00  0.000000D+00
 Symmetrized Coordinates in SymCor: 
                 1             2             3             4             5 
      1   0.228264D+01  0.399424D+01  0.253146D+01 -0.701439D-03 -0.173859D+01
      2   0.244283D+01  0.130382D+01  0.447823D+01  0.135927D+01  0.245461D+01
      3   0.000000D+00  0.000000D+00  0.000000D+00  0.000000D+00  0.000000D+00
                 6             7             8 
      1  -0.276941D+00  0.154237D+01 -0.229476D+01
      2  -0.141444D+01 -0.247337D+01 -0.251168D+01
      3   0.000000D+00  0.000000D+00  0.000000D+00
 Final Coordinates in SymCor: 
                 1             2             3             4             5 
      1   0.228264D+01  0.399424D+01  0.253146D+01 -0.701439D-03 -0.173859D+01
      2   0.244283D+01  0.130382D+01  0.447823D+01  0.135927D+01  0.245461D+01
      3   0.000000D+00  0.000000D+00  0.000000D+00  0.000000D+00  0.000000D+00
                 6             7             8 
      1  -0.276942D+00  0.154237D+01 -0.229476D+01
      2  -0.141444D+01 -0.247337D+01 -0.251168D+01
      3   0.000000D+00  0.000000D+00  0.000000D+00
 ClnCor:  largest displacement from symmetrization is 3.71D-13 for atom     6.
 Variable       Old X    -DE/DX   Delta X   Delta X   Delta X     New X
                                 (Linear)    (Quad)   (Total)
    R1        2.05598  -0.00001   0.00000  -0.00004  -0.00004   2.05594
    R2        2.05053   0.00001   0.00000   0.00003   0.00003   2.05056
    R3        2.52737  -0.00000   0.00000   0.00003   0.00003   2.52740
    R4        2.05441  -0.00004   0.00000  -0.00014  -0.00014   2.05427
    R5        2.78748  -0.00003   0.00000  -0.00006  -0.00006   2.78743
    R6        2.10534  -0.00009   0.00000  -0.00029  -0.00029   2.10505
    R7        2.29684   0.00001   0.00000   0.00002   0.00002   2.29685
    A1        2.03638  -0.00000   0.00000  -0.00006  -0.00006   2.03633
    A2        2.11145  -0.00001   0.00000  -0.00011  -0.00011   2.11134
    A3        2.13535   0.00001   0.00000   0.00016   0.00016   2.13552
    A4        2.13606   0.00002   0.00000   0.00007   0.00007   2.13613
    A5        2.11379  -0.00009   0.00000  -0.00065  -0.00065   2.11314
    A6        2.03333   0.00007   0.00000   0.00058   0.00058   2.03391
    A7        1.99882  -0.00001   0.00000  -0.00018  -0.00018   1.99865
    A8        2.16789   0.00002   0.00000   0.00023   0.00023   2.16812
    A9        2.11647  -0.00001   0.00000  -0.00005  -0.00005   2.11642
    D1        3.14159   0.00000   0.00000  -0.00000   0.00000   3.14159
    D2       -0.00000   0.00000   0.00000   0.00000   0.00000   0.00000
    D3        0.00000   0.00000   0.00000  -0.00000   0.00000   0.00000
    D4        3.14159  -0.00000   0.00000   0.00000   0.00000   3.14159
    D5        0.00000   0.00000   0.00000  -0.00000   0.00000   0.00000
    D6        3.14159   0.00000   0.00000  -0.00000   0.00000   3.14159
    D7        3.14159   0.00000   0.00000  -0.00000   0.00000   3.14159
    D8       -0.00000  -0.00000   0.00000  -0.00000   0.00000   0.00000
         Item               Value     Threshold  Converged?
 Maximum Force            0.000091     0.000450     YES
 RMS     Force            0.000032     0.000300     YES
 Maximum Displacement     0.001373     0.001800     YES
 RMS     Displacement     0.000565     0.001200     YES
 Predicted change in Energy=-7.308064D-08
 Optimization completed.
    -- Stationary point found.
                           ----------------------------
                           !   Optimized Parameters   !
                           ! (Angstroms and Degrees)  !
 --------------------------                            --------------------------
 ! Name  Definition              Value          Derivative Info.                !
 --------------------------------------------------------------------------------
 ! R1    R(1,2)                  1.088          -DE/DX =    0.0                 !
 ! R2    R(1,3)                  1.0851         -DE/DX =    0.0                 !
 ! R3    R(1,4)                  1.3374         -DE/DX =    0.0                 !
 ! R4    R(4,5)                  1.0871         -DE/DX =    0.0                 !
 ! R5    R(4,6)                  1.4751         -DE/DX =    0.0                 !
 ! R6    R(6,7)                  1.1141         -DE/DX =   -0.0001              !
 ! R7    R(6,8)                  1.2154         -DE/DX =    0.0                 !
 ! A1    A(2,1,3)              116.6761         -DE/DX =    0.0                 !
 ! A2    A(2,1,4)              120.9773         -DE/DX =    0.0                 !
 ! A3    A(3,1,4)              122.3466         -DE/DX =    0.0                 !
 ! A4    A(1,4,5)              122.3874         -DE/DX =    0.0                 !
 ! A5    A(1,4,6)              121.1114         -DE/DX =   -0.0001              !
 ! A6    A(5,4,6)              116.5012         -DE/DX =    0.0001              !
 ! A7    A(4,6,7)              114.5242         -DE/DX =    0.0                 !
 ! A8    A(4,6,8)              124.2107         -DE/DX =    0.0                 !
 ! A9    A(7,6,8)              121.265          -DE/DX =    0.0                 !
 ! D1    D(2,1,4,5)            180.0            -DE/DX =    0.0                 !
 ! D2    D(2,1,4,6)              0.0            -DE/DX =    0.0                 !
 ! D3    D(3,1,4,5)              0.0            -DE/DX =    0.0                 !
 ! D4    D(3,1,4,6)            180.0            -DE/DX =    0.0                 !
 ! D5    D(1,4,6,7)              0.0            -DE/DX =    0.0                 !
 ! D6    D(1,4,6,8)            180.0            -DE/DX =    0.0                 !
 ! D7    D(5,4,6,7)            180.0            -DE/DX =    0.0                 !
 ! D8    D(5,4,6,8)              0.0            -DE/DX =    0.0                 !
 --------------------------------------------------------------------------------
 GradGradGradGradGradGradGradGradGradGradGradGradGradGradGradGradGradGrad

 Leave Link  103 at Sat Aug 10 16:33:21 2019, MaxMem=  4294967296 cpu:               9.8 elap:               0.7

 ----------------------------------------------------------------------

 Electric dipole moment (input orientation):
 (Debye = 10**-18 statcoulomb cm , SI units = C m)
                  (au)            (Debye)         (10**-30 SI)
   Tot        0.123945D+01      0.315036D+01      0.105085D+02
   x          0.934343D+00      0.237486D+01      0.792169D+01
   y          0.814391D+00      0.206998D+01      0.690470D+01
   z          0.000000D+00      0.000000D+00      0.000000D+00

 Dipole polarizability, Alpha (input orientation).
 (esu units = cm**3 , SI units = C**2 m**2 J**-1)
 Alpha(0;0):
               (au)            (10**-24 esu)      (10**-40 SI)
   iso        0.338526D+02      0.501644D+01      0.558154D+01
   aniso      0.354986D+02      0.526034D+01      0.585292D+01
   xx         0.452598D+02      0.670681D+01      0.746233D+01
   yx         0.114291D+02      0.169362D+01      0.188440D+01
   yy         0.419994D+02      0.622367D+01      0.692477D+01
   zx         0.000000D+00      0.000000D+00      0.000000D+00
   zy         0.000000D+00      0.000000D+00      0.000000D+00
   zz         0.142987D+02      0.211885D+01      0.235753D+01

 ----------------------------------------------------------------------

 Dipole orientation:
     6         -0.22454603          0.25761954          3.32631889
     1          1.07843459         -1.23727781          3.86906562
     1         -1.12577740          1.29159377          4.85057194
     6         -0.67309470          0.77223519          0.89288982
     1         -1.96591881          2.25548007          0.30195579
     6          0.58110237         -0.66669326         -1.13849845
     1          1.89146132         -2.17005569         -0.46371438
     8          0.25262845         -0.28983823         -3.38026927

 Electric dipole moment (dipole orientation):
 (Debye = 10**-18 statcoulomb cm , SI units = C m)
                  (au)            (Debye)         (10**-30 SI)
   Tot        0.123945D+01      0.315036D+01      0.105085D+02
   x          0.000000D+00      0.000000D+00      0.000000D+00
   y          0.000000D+00      0.000000D+00      0.000000D+00
   z          0.123945D+01      0.315036D+01      0.105085D+02

 Dipole polarizability, Alpha (dipole orientation).
 (esu units = cm**3 , SI units = C**2 m**2 J**-1)
 Alpha(0;0):
               (au)            (10**-24 esu)      (10**-40 SI)
   iso        0.338526D+02      0.501644D+01      0.558154D+01
   aniso      0.354986D+02      0.526034D+01      0.585292D+01
   xx         0.219775D+02      0.325673D+01      0.362360D+01
   yx        -0.880985D+01     -0.130548D+01     -0.145255D+01
   yy         0.244061D+02      0.361662D+01      0.402403D+01
   zx         0.356907D-01      0.528881D-02      0.588459D-02
   zy        -0.409476D-01     -0.606780D-02     -0.675134D-02
   zz         0.551742D+02      0.817598D+01      0.909700D+01

 ----------------------------------------------------------------------

 Test job not archived.
 1\1\NSC-N1819\Freq\RB3LYP\6-31G(d,p)\C3H4O1\X_KJEJO\10-Aug-2019\0\\# f
 req(intmodes) iop(1/33=3) b3lyp/6-31g(d,p) geom=connectivity iop(7/75=
 -1)\\name\\0,1\C,1.208091,1.292891,0.\H,2.114108,0.690539,0.\H,1.33922
 6,2.370031,0.\C,0.,0.719108,0.\H,-0.919865,1.298539,0.\C,-0.146657,-0.
 748656,0.\H,0.815936,-1.309578,0.\O,-1.214752,-1.328699,0.\\Version=ES
 64L-G16RevB.01\State=1-A'\HF=-191.9180148\RMSD=1.677e-09\RMSF=4.049e-0
 5\ZeroPoint=0.0614883\Thermal=0.0658455\Dipole=0.9343433,0.8143912,0.\
 DipoleDeriv=0.1494945,0.0865802,0.,-0.0194537,0.1153938,0.,0.,0.,-0.21
 26653,-0.0140488,0.0440097,0.,0.0932374,0.0023953,0.,0.,0.,0.1328849,0
 .0613167,-0.0011438,0.,-0.0183516,-0.0535076,0.,0.,0.,0.1244476,-0.067
 1265,-0.1521648,0.,-0.3091129,-0.4534414,0.,0.,0.,-0.1044655,-0.027615
 7,0.058731,0.,0.0357616,-0.0056254,0.,0.,0.,0.1287224,0.9465076,0.0998
 359,0.,0.4466947,1.2077416,0.,0.,0.,0.2323167,-0.180566,0.169373,0.,0.
 0819363,-0.0879149,0.,0.,0.,0.0444659,-0.8679618,-0.3052211,0.,-0.3107
 119,-0.7250414,0.,0.,0.,-0.3457068\Polar=45.2597673,11.42909,41.999425
 4,0.,0.,14.2986782\Quadrupole=-0.0476823,0.2425219,-0.1948397,-1.85451
 31,0.,0.\PG=CS [SG(C3H4O1)]\NImag=0\\0.80425782,0.08895432,0.69656255,
 0.,0.,0.11714964,-0.24753673,0.12768979,0.,0.26514160,0.13036709,-0.14
 863830,0.,-0.13975734,0.14700627,0.,0.,-0.03775644,0.,0.,0.02438801,-0
 .06076622,-0.02790850,0.,0.00564940,0.02381455,0.,0.05720618,-0.031724
 98,-0.34352551,0.,-0.00409485,-0.01087607,0.,0.03628430,0.36029327,0.,
 0.,-0.03934156,0.,0.,0.00372600,0.,0.,0.02372978,-0.47620535,-0.166017
 81,0.,-0.02209008,-0.01049941,0.,0.00167549,0.00170789,0.,0.86305505,-
 0.15604509,-0.19325787,0.,0.01764460,0.01309426,0.,-0.03182570,-0.0078
 7404,0.,0.05015369,0.59857081,0.,0.,-0.04858076,0.,0.,0.00532714,0.,0.
 ,0.00893418,0.,0.,0.11384246,-0.01870950,0.01664072,0.,-0.00277283,-0.
 00236436,0.,0.00110058,-0.00016396,0.,-0.25580410,0.12855443,0.,0.2713
 4452,-0.01527927,0.01201238,0.,-0.00306088,-0.00100857,0.,0.00040747,0
 .00101244,0.,0.12970769,-0.13998666,0.,-0.13824255,0.14166445,0.,0.,0.
 00484112,0.,0.,0.01161843,0.,0.,-0.00727057,0.,0.,-0.04008696,0.,0.,0.
 02702022,-0.01323694,-0.04095792,0.,0.00033383,-0.00429163,0.,-0.00493
 465,-0.00205691,0.,-0.09328990,0.04018280,0.,0.00321514,0.03022919,0.,
 0.90868023,-0.02461900,-0.01637678,0.,0.00378754,0.00016051,0.,0.00255
 987,0.00138232,0.,0.03056431,-0.22236261,0.,-0.00468238,-0.01306600,0.
 ,0.15056762,0.63196424,0.,0.,0.00249445,0.,0.,-0.00945508,0.,0.,0.0149
 4325,0.,0.,-0.07686250,0.,0.,0.00309596,0.,0.,0.18563271,0.00119353,-0
 .00000993,0.,0.00055180,0.00090371,0.,0.00064810,0.00022375,0.,0.00083
 337,-0.00201059,0.,0.00014781,-0.00050013,0.,-0.18515067,0.10308591,0.
 ,0.23490348,0.00182513,0.00048434,0.,-0.00158164,0.00011136,0.,-0.0006
 6380,0.00037409,0.,0.02729099,-0.01525150,0.,-0.00102521,-0.00537794,0
 .,0.09300264,-0.13458696,0.,-0.10105821,0.13087140,0.,0.,-0.00135736,0
 .,0.,0.00048534,0.,0.,-0.00116450,0.,0.,0.01617452,0.,0.,0.00273412,0.
 ,0.,-0.05840796,0.,0.,0.02295414,0.01100340,0.00160933,0.,0.00072300,0
 .00182739,0.,-0.00057887,-0.00017525,0.,-0.01817448,-0.04665414,0.,0.0
 0147837,-0.00326151,0.,-0.61561703,-0.26126387,0.,-0.05312742,-0.01778
 990,0.,0.67429304,0.00652180,-0.00726079,0.,-0.00062721,0.00015055,0.,
 -0.00266821,-0.00078650,0.,-0.06290735,-0.03293239,0.,0.00128330,0.004
 74990,0.,-0.26667578,-0.24711472,0.,-0.00063450,0.02337521,0.,0.325707
 95,0.25981875,0.,0.,0.00255091,0.,0.,0.00166659,0.,0.,-0.00355658,0.,0
 .,0.02125193,0.,0.,-0.00195233,0.,0.,-0.06144083,0.,0.,0.01858170,0.,0
 .,0.02289861\\-0.00001817,0.00004669,0.,0.00001278,-0.00000560,0.,-0.0
 0000899,-0.00000840,0.,0.00010783,-0.00001631,0.,-0.00004721,0.0000050
 0,0.,-0.00011941,0.00000799,0.,0.00007499,-0.00004599,0.,-0.00000182,0
 .00001662,0.\\\@


 FOR THE NATURE OF THE CHEMICAL BOND
 IS THE PROBLEM AT THE HEART OF ALL CHEMISTRY.

                     -- BRYCE CRAWFORD, JR., 1953
 Job cpu time:       0 days  0 hours  2 minutes 54.4 seconds.
 Elapsed time:       0 days  0 hours  0 minutes 14.4 seconds.
 File lengths (MBytes):  RWF=     10 Int=      0 D2E=      0 Chk=      8 Scr=      1
 Normal termination of Gaussian 16 at Sat Aug 10 16:33:21 2019.
