 Entering Gaussian System, Link 0=/software/sse/easybuild/prefix/software/Gaussian/16.B.01-avx2-nsc1-bdist/g16/g16.orig
 Input=freq-hp.wrap
 Output=freq-hp.log
 Initial command:
 /software/sse/easybuild/prefix/software/Gaussian/16.B.01-avx2-nsc1-bdist/g16/l1.exe "/scratch/local/Gau-33325.inp" -scrdir="/scratch/local/"
 Default is to use a total of  16 processors:
                               16 via shared-memory
                                1 via Linda
 Entering Link 1 = /software/sse/easybuild/prefix/software/Gaussian/16.B.01-avx2-nsc1-bdist/g16/l1.exe PID=     33330.
  
 Copyright (c) 1988-2017, Gaussian, Inc.  All Rights Reserved.
  
 This is part of the Gaussian(R) 16 program.  It is based on
 the Gaussian(R) 09 system (copyright 2009, Gaussian, Inc.),
 the Gaussian(R) 03 system (copyright 2003, Gaussian, Inc.),
 the Gaussian(R) 98 system (copyright 1998, Gaussian, Inc.),
 the Gaussian(R) 94 system (copyright 1995, Gaussian, Inc.),
 the Gaussian 92(TM) system (copyright 1992, Gaussian, Inc.),
 the Gaussian 90(TM) system (copyright 1990, Gaussian, Inc.),
 the Gaussian 88(TM) system (copyright 1988, Gaussian, Inc.),
 the Gaussian 86(TM) system (copyright 1986, Carnegie Mellon
 University), and the Gaussian 82(TM) system (copyright 1983,
 Carnegie Mellon University). Gaussian is a federally registered
 trademark of Gaussian, Inc.
  
 This software contains proprietary and confidential information,
 including trade secrets, belonging to Gaussian, Inc.
  
 This software is provided under written license and may be
 used, copied, transmitted, or stored only in accord with that
 written license.
  
 The following legend is applicable only to US Government
 contracts under FAR:
  
                    RESTRICTED RIGHTS LEGEND
  
 Use, reproduction and disclosure by the US Government is
 subject to restrictions as set forth in subparagraphs (a)
 and (c) of the Commercial Computer Software - Restricted
 Rights clause in FAR 52.227-19.
  
 Gaussian, Inc.
 340 Quinnipiac St., Bldg. 40, Wallingford CT 06492
  
  
 ---------------------------------------------------------------
 Warning -- This program may not be used in any manner that
 competes with the business of Gaussian, Inc. or will provide
 assistance to any competitor of Gaussian, Inc.  The licensee
 of this program is prohibited from giving any competitor of
 Gaussian, Inc. access to this program.  By using this program,
 the user acknowledges that Gaussian, Inc. is engaged in the
 business of creating and licensing software in the field of
 computational chemistry and represents and warrants to the
 licensee that it is not a competitor of Gaussian, Inc. and that
 it will not use this program in any manner prohibited above.
 ---------------------------------------------------------------
  

 Cite this work as:
 Gaussian 16, Revision B.01,
 M. J. Frisch, G. W. Trucks, H. B. Schlegel, G. E. Scuseria, 
 M. A. Robb, J. R. Cheeseman, G. Scalmani, V. Barone, 
 G. A. Petersson, H. Nakatsuji, X. Li, M. Caricato, A. V. Marenich, 
 J. Bloino, B. G. Janesko, R. Gomperts, B. Mennucci, H. P. Hratchian, 
 J. V. Ortiz, A. F. Izmaylov, J. L. Sonnenberg, D. Williams-Young, 
 F. Ding, F. Lipparini, F. Egidi, J. Goings, B. Peng, A. Petrone, 
 T. Henderson, D. Ranasinghe, V. G. Zakrzewski, J. Gao, N. Rega, 
 G. Zheng, W. Liang, M. Hada, M. Ehara, K. Toyota, R. Fukuda, 
 J. Hasegawa, M. Ishida, T. Nakajima, Y. Honda, O. Kitao, H. Nakai, 
 T. Vreven, K. Throssell, J. A. Montgomery, Jr., J. E. Peralta, 
 F. Ogliaro, M. J. Bearpark, J. J. Heyd, E. N. Brothers, K. N. Kudin, 
 V. N. Staroverov, T. A. Keith, R. Kobayashi, J. Normand, 
 K. Raghavachari, A. P. Rendell, J. C. Burant, S. S. Iyengar, 
 J. Tomasi, M. Cossi, J. M. Millam, M. Klene, C. Adamo, R. Cammi, 
 J. W. Ochterski, R. L. Martin, K. Morokuma, O. Farkas, 
 J. B. Foresman, and D. J. Fox, Gaussian, Inc., Wallingford CT, 2016.
 
 ******************************************
 Gaussian 16:  ES64L-G16RevB.01 20-Dec-2017
                10-Aug-2019 
 ******************************************
 %chk=freq.chk
 ----------------------------------------------------------------------
 # freq(hpmodes,intmodes) iop(1/33=3) b3lyp/6-31g(d,p) geom=connectivit
 y iop(7/75=-1)
 ----------------------------------------------------------------------
 1/10=4,18=20,30=1,33=3,38=1,57=2/1,3;
 2/9=110,12=2,17=6,18=5,40=1/2;
 3/5=1,6=6,7=101,11=2,25=1,30=1,71=2,74=-5,140=1/1,2,3;
 4//1;
 5/5=2,38=5,98=1/2;
 8/6=4,10=90,11=11/1;
 11/6=1,8=1,9=11,15=111,16=1/1,2,10;
 10/6=1/2;
 6/7=2,8=2,9=2,10=2,28=1/1;
 7/8=31,10=1,25=1,75=-1/1,2,3,16;
 1/10=4,18=20,30=1,33=3/3;
 99//99;
 ONIOM results not found on unit 2.
 ----
 name
 ----
 TstMul:  ICh=     0
 TstMul:  Mul=     1
 TstMul:  ICh=     0
 TstMul:  Mul=     1
 Symbolic Z-matrix:
 Charge =  0 Multiplicity = 1
 N                    -1.95239  -0.33089   0.00003 
 C                    -0.87902   0.11115  -0.00006 
 C                     0.48387   0.65152   0.00002 
 H                     0.59421   1.29694  -0.87902 
 H                     0.59418   1.29678   0.87912 
 C                     1.5593   -0.44882  -0.00001 
 H                     2.55351   0.0059    0.00025 
 H                     1.4698   -1.0834    0.88515 
 H                     1.47009  -1.08311  -0.88539 
 
 RdStrC is calling ZToCFu for IStruc=1 NZ=     9.
                                ZToCFu                                
 ---------------------------------------------------------------------
 Center     Atomic      Atomic             Coordinates (Angstroms)
 Number     Number       Type             X           Y           Z
 ---------------------------------------------------------------------
      1          7           0       -1.952390   -0.330886    0.000025
      2          6           0       -0.879019    0.111146   -0.000057
      3          6           0        0.483873    0.651517    0.000018
      4          1           0        0.594207    1.296942   -0.879016
      5          1           0        0.594179    1.296782    0.879122
      6          6           0        1.559303   -0.448816   -0.000008
      7          1           0        2.553513    0.005903    0.000250
      8          1           0        1.469800   -1.083404    0.885146
      9          1           0        1.470088   -1.083107   -0.885393
 ---------------------------------------------------------------------
 Connectivity in DoCon:
 I=     1 IAn=  7 IBond, RBType=     2  3.00
 I=     2 IAn=  6 IBond, RBType=     1  3.00     3  1.00
 I=     3 IAn=  6 IBond, RBType=     2  1.00     4  1.00     5  1.00     6  1.00
 I=     4 IAn=  1 IBond, RBType=     3  1.00
 I=     5 IAn=  1 IBond, RBType=     3  1.00
 I=     6 IAn=  6 IBond, RBType=     3  1.00     7  1.00     8  1.00     9  1.00
 I=     7 IAn=  1 IBond, RBType=     6  1.00
 I=     8 IAn=  1 IBond, RBType=     6  1.00
 I=     9 IAn=  1 IBond, RBType=     6  1.00
 After GenITR:
 ITRead=  0  0  0  0  0  0  0  0  0
 MicOpt= -1 -1 -1 -1 -1 -1 -1 -1 -1
 List IsCon N=      9 M=      2:
 I=      1 Vals=      2      3 |
 I=      2 Vals=      1      3 |      3      1 |
 I=      3 Vals=      2      1 |      4      1 |      5      1 |      6      1 |
 I=      4 Vals=      3      1 |
 I=      5 Vals=      3      1 |
 I=      6 Vals=      3      1 |      7      1 |      8      1 |      9      1 |
 I=      7 Vals=      6      1 |
 I=      8 Vals=      6      1 |
 I=      9 Vals=      6      1 |
 Coordinate R1 contains atom 1 which is already in QM block.
 Coordinate R1 contains atom 2 which is already in QM block.
 Coordinate R2 contains atom 2 which is already in QM block.
 Coordinate R2 contains atom 3 which is already in QM block.
 Coordinate R3 contains atom 3 which is already in QM block.
 Coordinate R3 contains atom 4 which is already in QM block.
 Coordinate R4 contains atom 3 which is already in QM block.
 Coordinate R4 contains atom 5 which is already in QM block.
 Coordinate R5 contains atom 3 which is already in QM block.
 Coordinate R5 contains atom 6 which is already in QM block.
 Coordinate R6 contains atom 6 which is already in QM block.
 Coordinate R6 contains atom 7 which is already in QM block.
 Coordinate R7 contains atom 6 which is already in QM block.
 Coordinate R7 contains atom 8 which is already in QM block.
 Coordinate R8 contains atom 6 which is already in QM block.
 Coordinate R8 contains atom 9 which is already in QM block.
 Coordinate A1 contains atom 2 which is already in QM block.
 Coordinate A1 contains atom 3 which is already in QM block.
 Coordinate A1 contains atom 3 which is already in QM block.
 Coordinate A2 contains atom 2 which is already in QM block.
 Coordinate A2 contains atom 3 which is already in QM block.
 Coordinate A2 contains atom 3 which is already in QM block.
 Coordinate A3 contains atom 2 which is already in QM block.
 Coordinate A3 contains atom 3 which is already in QM block.
 Coordinate A3 contains atom 3 which is already in QM block.
 Coordinate A4 contains atom 4 which is already in QM block.
 Coordinate A4 contains atom 3 which is already in QM block.
 Coordinate A4 contains atom 3 which is already in QM block.
 Coordinate A5 contains atom 4 which is already in QM block.
 Coordinate A5 contains atom 3 which is already in QM block.
 Coordinate A5 contains atom 3 which is already in QM block.
 Coordinate A6 contains atom 5 which is already in QM block.
 Coordinate A6 contains atom 3 which is already in QM block.
 Coordinate A6 contains atom 3 which is already in QM block.
 Coordinate A7 contains atom 3 which is already in QM block.
 Coordinate A7 contains atom 6 which is already in QM block.
 Coordinate A7 contains atom 6 which is already in QM block.
 Coordinate A8 contains atom 3 which is already in QM block.
 Coordinate A8 contains atom 6 which is already in QM block.
 Coordinate A8 contains atom 6 which is already in QM block.
 Coordinate A9 contains atom 3 which is already in QM block.
 Coordinate A9 contains atom 6 which is already in QM block.
 Coordinate A9 contains atom 6 which is already in QM block.
 Coordinate A10 contains atom 7 which is already in QM block.
 Coordinate A10 contains atom 6 which is already in QM block.
 Coordinate A10 contains atom 6 which is already in QM block.
 Coordinate A11 contains atom 7 which is already in QM block.
 Coordinate A11 contains atom 6 which is already in QM block.
 Coordinate A11 contains atom 6 which is already in QM block.
 Coordinate A12 contains atom 8 which is already in QM block.
 Coordinate A12 contains atom 6 which is already in QM block.
 Coordinate A12 contains atom 6 which is already in QM block.
 Coordinate L13 contains atom 1 which is already in QM block.
 Coordinate L13 contains atom 2 which is already in QM block.
 Coordinate L13 contains atom 2 which is already in QM block.
 Coordinate L13 contains atom 8 which is already in QM block.
 Coordinate L14 contains atom 1 which is already in QM block.
 Coordinate L14 contains atom 2 which is already in QM block.
 Coordinate L14 contains atom 2 which is already in QM block.
 Coordinate L14 contains atom 8 which is already in QM block.
 Coordinate D1 contains atom 2 which is already in QM block.
 Coordinate D1 contains atom 3 which is already in QM block.
 Coordinate D1 contains atom 6 which is already in QM block.
 Coordinate D1 contains atom 7 which is already in QM block.
 Coordinate D2 contains atom 2 which is already in QM block.
 Coordinate D2 contains atom 3 which is already in QM block.
 Coordinate D2 contains atom 6 which is already in QM block.
 Coordinate D2 contains atom 8 which is already in QM block.
 Coordinate D3 contains atom 2 which is already in QM block.
 Coordinate D3 contains atom 3 which is already in QM block.
 Coordinate D3 contains atom 6 which is already in QM block.
 Coordinate D3 contains atom 9 which is already in QM block.
 Coordinate D4 contains atom 4 which is already in QM block.
 Coordinate D4 contains atom 3 which is already in QM block.
 Coordinate D4 contains atom 6 which is already in QM block.
 Coordinate D4 contains atom 7 which is already in QM block.
 Coordinate D5 contains atom 4 which is already in QM block.
 Coordinate D5 contains atom 3 which is already in QM block.
 Coordinate D5 contains atom 6 which is already in QM block.
 Coordinate D5 contains atom 8 which is already in QM block.
 Coordinate D6 contains atom 4 which is already in QM block.
 Coordinate D6 contains atom 3 which is already in QM block.
 Coordinate D6 contains atom 6 which is already in QM block.
 Coordinate D6 contains atom 9 which is already in QM block.
 Coordinate D7 contains atom 5 which is already in QM block.
 Coordinate D7 contains atom 3 which is already in QM block.
 Coordinate D7 contains atom 6 which is already in QM block.
 Coordinate D7 contains atom 7 which is already in QM block.
 Coordinate D8 contains atom 5 which is already in QM block.
 Coordinate D8 contains atom 3 which is already in QM block.
 Coordinate D8 contains atom 6 which is already in QM block.
 Coordinate D8 contains atom 8 which is already in QM block.
 Coordinate D9 contains atom 5 which is already in QM block.
 Coordinate D9 contains atom 3 which is already in QM block.
 Coordinate D9 contains atom 6 which is already in QM block.
 Coordinate D9 contains atom 9 which is already in QM block.
 Saved connectivity
 I=     1 IAn=  7 IBond, RBType=     2  3.00
 I=     2 IAn=  6 IBond, RBType=     1  3.00     3  1.00
 I=     3 IAn=  6 IBond, RBType=     2  1.00     4  1.00     5  1.00     6  1.00
 I=     4 IAn=  1 IBond, RBType=     3  1.00
 I=     5 IAn=  1 IBond, RBType=     3  1.00
 I=     6 IAn=  6 IBond, RBType=     3  1.00     7  1.00     8  1.00     9  1.00
 I=     7 IAn=  1 IBond, RBType=     6  1.00
 I=     8 IAn=  1 IBond, RBType=     6  1.00
 I=     9 IAn=  1 IBond, RBType=     6  1.00
 ITRead=  0  0  0  0  0  0  0  0  0
 MicOpt= -1 -1 -1 -1 -1 -1 -1 -1 -1
 NAtoms=      9 NQM=        9 NQMF=       0 NMMI=      0 NMMIF=      0
                NMic=       0 NMicF=      0.
 No MM parameters found.
 Leave Link  101 at Sat Aug 10 16:33:06 2019, MaxMem=  4294967296 cpu:               8.0 elap:               0.6

 GradGradGradGradGradGradGradGradGradGradGradGradGradGradGradGradGradGrad
 Berny optimization.
 GetPCM: File not found, return IValue=0.
 Optmz: redundant internal coordinate code flag= 1
 Initialization pass.
                           ----------------------------
                           !    Initial Parameters    !
                           ! (Angstroms and Degrees)  !
 --------------------------                            --------------------------
 ! Name  Definition              Value          Derivative Info.                !
 --------------------------------------------------------------------------------
 ! R1    R(1,2)                  1.1608         calculate D2E/DX2 analytically  !
 ! R2    R(2,3)                  1.4661         calculate D2E/DX2 analytically  !
 ! R3    R(3,4)                  1.0961         calculate D2E/DX2 analytically  !
 ! R4    R(3,5)                  1.0961         calculate D2E/DX2 analytically  !
 ! R5    R(3,6)                  1.5386         calculate D2E/DX2 analytically  !
 ! R6    R(6,7)                  1.0933         calculate D2E/DX2 analytically  !
 ! R7    R(6,8)                  1.0928         calculate D2E/DX2 analytically  !
 ! R8    R(6,9)                  1.0928         calculate D2E/DX2 analytically  !
 ! A1    A(2,3,4)              108.0931         calculate D2E/DX2 analytically  !
 ! A2    A(2,3,5)              108.0941         calculate D2E/DX2 analytically  !
 ! A3    A(2,3,6)              112.7165         calculate D2E/DX2 analytically  !
 ! A4    A(4,3,5)              106.6445         calculate D2E/DX2 analytically  !
 ! A5    A(4,3,6)              110.5323         calculate D2E/DX2 analytically  !
 ! A6    A(5,3,6)              110.5295         calculate D2E/DX2 analytically  !
 ! A7    A(3,6,7)              109.7664         calculate D2E/DX2 analytically  !
 ! A8    A(3,6,8)              110.9792         calculate D2E/DX2 analytically  !
 ! A9    A(3,6,9)              110.9804         calculate D2E/DX2 analytically  !
 ! A10   A(7,6,8)              108.4103         calculate D2E/DX2 analytically  !
 ! A11   A(7,6,9)              108.4123         calculate D2E/DX2 analytically  !
 ! A12   A(8,6,9)              108.2108         calculate D2E/DX2 analytically  !
 ! A13   L(1,2,3,8,-1)         179.3075         calculate D2E/DX2 analytically  !
 ! A14   L(1,2,3,8,-2)         179.6157         calculate D2E/DX2 analytically  !
 ! D1    D(2,3,6,7)           -179.9889         calculate D2E/DX2 analytically  !
 ! D2    D(2,3,6,8)            -60.173          calculate D2E/DX2 analytically  !
 ! D3    D(2,3,6,9)             60.192          calculate D2E/DX2 analytically  !
 ! D4    D(4,3,6,7)             58.9259         calculate D2E/DX2 analytically  !
 ! D5    D(4,3,6,8)            178.7418         calculate D2E/DX2 analytically  !
 ! D6    D(4,3,6,9)            -60.8932         calculate D2E/DX2 analytically  !
 ! D7    D(5,3,6,7)            -58.9044         calculate D2E/DX2 analytically  !
 ! D8    D(5,3,6,8)             60.9115         calculate D2E/DX2 analytically  !
 ! D9    D(5,3,6,9)           -178.7235         calculate D2E/DX2 analytically  !
 --------------------------------------------------------------------------------
 Maximum allowed force set to 1.00D+20.
 Trust Radius=3.00D-01 FncErr=1.00D-07 GrdErr=1.00D-07 EigMax=2.50D+02 EigMin=1.00D-04
 Number of steps in this run=      2 maximum allowed number of steps=      2.
 GradGradGradGradGradGradGradGradGradGradGradGradGradGradGradGradGradGrad

 Leave Link  103 at Sat Aug 10 16:33:06 2019, MaxMem=  4294967296 cpu:               1.1 elap:               0.1
                          Input orientation:                          
 ---------------------------------------------------------------------
 Center     Atomic      Atomic             Coordinates (Angstroms)
 Number     Number       Type             X           Y           Z
 ---------------------------------------------------------------------
      1          7           0       -1.952390   -0.330886    0.000025
      2          6           0       -0.879019    0.111146   -0.000057
      3          6           0        0.483873    0.651517    0.000018
      4          1           0        0.594207    1.296942   -0.879016
      5          1           0        0.594179    1.296782    0.879122
      6          6           0        1.559303   -0.448816   -0.000008
      7          1           0        2.553513    0.005903    0.000250
      8          1           0        1.469800   -1.083404    0.885146
      9          1           0        1.470088   -1.083107   -0.885393
 ---------------------------------------------------------------------
                    Distance matrix (angstroms):
                    1          2          3          4          5
     1  N    0.000000
     2  C    1.160826   0.000000
     3  C    2.626879   1.466109   0.000000
     4  H    3.147649   2.085444   1.096106   0.000000
     5  H    3.147559   2.085426   1.096065   1.758138   0.000000
     6  C    3.513673   2.501794   1.538598   2.179848   2.179781
     7  H    4.518472   3.434145   2.168001   2.505747   2.505549
     8  H    3.614015   2.779835   2.182992   3.089495   2.536145
     9  H    3.614299   2.779993   2.183001   2.536108   3.089434
                    6          7          8          9
     6  C    0.000000
     7  H    1.093263   0.000000
     8  H    1.092799   1.773151   0.000000
     9  H    1.092790   1.773166   1.770539   0.000000
 Stoichiometry    C3H5N
 Framework group  C1[X(C3H5N)]
 Deg. of freedom    21
 Full point group                 C1      NOp   1
 Largest Abelian subgroup         C1      NOp   1
 Largest concise Abelian subgroup C1      NOp   1
                         Standard orientation:                         
 ---------------------------------------------------------------------
 Center     Atomic      Atomic             Coordinates (Angstroms)
 Number     Number       Type             X           Y           Z
 ---------------------------------------------------------------------
      1          7           0        1.952390   -0.330886   -0.000025
      2          6           0        0.879019    0.111146    0.000057
      3          6           0       -0.483873    0.651517   -0.000018
      4          1           0       -0.594207    1.296942    0.879016
      5          1           0       -0.594179    1.296782   -0.879122
      6          6           0       -1.559303   -0.448816    0.000008
      7          1           0       -2.553513    0.005903   -0.000250
      8          1           0       -1.469800   -1.083404   -0.885146
      9          1           0       -1.470088   -1.083107    0.885393
 ---------------------------------------------------------------------
 Rotational constants (GHZ):          27.9919336           4.6519152           4.1968451
 Standard basis: 6-31G(d,p) (6D, 7F)
 There are    85 symmetry adapted cartesian basis functions of A   symmetry.
 There are    85 symmetry adapted basis functions of A   symmetry.
    85 basis functions,   147 primitive gaussians,    85 cartesian basis functions
    15 alpha electrons       15 beta electrons
       nuclear repulsion energy       102.5739221804 Hartrees.
 NAtoms=    9 NActive=    9 NUniq=    9 SFac= 1.00D+00 NAtFMM=   60 NAOKFM=F Big=F
 Integral buffers will be    131072 words long.
 Raffenetti 2 integral format.
 Two-electron integral symmetry is turned on.
 One-electron integrals computed using PRISM.
 NBasis=    85 RedAO= T EigKep=  1.42D-03  NBF=    85
 NBsUse=    85 1.00D-06 EigRej= -1.00D+00 NBFU=    85
 ExpMin= 1.61D-01 ExpMax= 4.17D+03 ExpMxC= 6.27D+02 IAcc=3 IRadAn=         5 AccDes= 0.00D+00
 Harris functional with IExCor=  402 and IRadAn=       5 diagonalized for initial guess.
 HarFok:  IExCor=  402 AccDes= 0.00D+00 IRadAn=         5 IDoV= 1 UseB2=F ITyADJ=14
 ICtDFT=  3500011 ScaDFX=  1.000000  1.000000  1.000000  1.000000
 FoFCou: FMM=F IPFlag=           0 FMFlag=      100000 FMFlg1=           0
         NFxFlg=           0 DoJE=T BraDBF=F KetDBF=T FulRan=T
         wScrn=  0.000000 ICntrl=       500 IOpCl=  0 I1Cent=   200000004 NGrid=           0
         NMat0=    1 NMatS0=      1 NMatT0=    0 NMatD0=    1 NMtDS0=    0 NMtDT0=    0
 Petite list used in FoFCou.
 Keep R1 ints in memory in canonical form, NReq=21242053.
 Requested convergence on RMS density matrix=1.00D-08 within 128 cycles.
 Requested convergence on MAX density matrix=1.00D-06.
 Requested convergence on             energy=1.00D-06.
 No special actions if energy rises.
 Integral accuracy reduced to 1.0D-05 until final iterations.
 Initial convergence to 1.0D-05 achieved.  Increase integral accuracy.
 SCF Done:  E(RB3LYP) =  -172.075593388     A.U. after   13 cycles
            NFock= 13  Conv=0.41D-08     -V/T= 2.0099
 DoSCS=F DFT=T ScalE2(SS,OS)=  1.000000  1.000000
 Range of M.O.s used for correlation:     1    85
 NBasis=    85 NAE=    15 NBE=    15 NFC=     0 NFV=     0
 NROrb=     85 NOA=    15 NOB=    15 NVA=    70 NVB=    70
 Symmetrizing basis deriv contribution to polar:
 IMax=3 JMax=2 DiffMx= 0.00D+00
 G2DrvN: will do    10 centers at a time, making    1 passes.
 Calling FoFCou, ICntrl=  3107 FMM=F I1Cent=   0 AccDes= 0.00D+00.
 End of G2Drv F.D. properties file   721 does not exist.
 End of G2Drv F.D. properties file   722 does not exist.
 End of G2Drv F.D. properties file   788 does not exist.
          IDoAtm=111111111
          Differentiating once with respect to electric field.
                with respect to dipole field.
          Differentiating once with respect to nuclear coordinates.
 Keep R1 ints in memory in canonical form, NReq=21194496.
          There are    30 degrees of freedom in the 1st order CPHF.  IDoFFX=6 NUNeed=     3.
     27 vectors produced by pass  0 Test12= 3.50D-15 3.33D-09 XBig12= 3.77D+01 3.74D+00.
 AX will form    27 AO Fock derivatives at one time.
     27 vectors produced by pass  1 Test12= 3.50D-15 3.33D-09 XBig12= 2.00D+01 1.23D+00.
     27 vectors produced by pass  2 Test12= 3.50D-15 3.33D-09 XBig12= 2.35D-01 9.81D-02.
     27 vectors produced by pass  3 Test12= 3.50D-15 3.33D-09 XBig12= 4.07D-04 4.40D-03.
     27 vectors produced by pass  4 Test12= 3.50D-15 3.33D-09 XBig12= 5.24D-07 1.37D-04.
     12 vectors produced by pass  5 Test12= 3.50D-15 3.33D-09 XBig12= 3.76D-10 3.86D-06.
      3 vectors produced by pass  6 Test12= 3.50D-15 3.33D-09 XBig12= 3.03D-13 1.21D-07.
 InvSVY:  IOpt=1 It=  1 EMax= 3.55D-15
 Solved reduced A of dimension   150 with    30 vectors.
 Isotropic polarizability for W=    0.000000       34.03 Bohr**3.
 End of Minotr F.D. properties file   721 does not exist.
 End of Minotr F.D. properties file   722 does not exist.
 End of Minotr F.D. properties file   788 does not exist.

 **********************************************************************

            Population analysis using the SCF Density.

 **********************************************************************

 Orbital symmetries:
       Occupied  (A) (A) (A) (A) (A) (A) (A) (A) (A) (A) (A) (A)
                 (A) (A) (A)
       Virtual   (A) (A) (A) (A) (A) (A) (A) (A) (A) (A) (A) (A)
                 (A) (A) (A) (A) (A) (A) (A) (A) (A) (A) (A) (A)
                 (A) (A) (A) (A) (A) (A) (A) (A) (A) (A) (A) (A)
                 (A) (A) (A) (A) (A) (A) (A) (A) (A) (A) (A) (A)
                 (A) (A) (A) (A) (A) (A) (A) (A) (A) (A) (A) (A)
                 (A) (A) (A) (A) (A) (A) (A) (A) (A) (A)
 The electronic state is 1-A.
 Alpha  occ. eigenvalues --  -14.33030 -10.24172 -10.22575 -10.20671  -0.90017
 Alpha  occ. eigenvalues --   -0.80631  -0.67445  -0.51872  -0.48501  -0.42976
 Alpha  occ. eigenvalues --   -0.39996  -0.38974  -0.35342  -0.32235  -0.32110
 Alpha virt. eigenvalues --    0.03306   0.04032   0.08818   0.13118   0.13377
 Alpha virt. eigenvalues --    0.15308   0.18600   0.18725   0.22887   0.31311
 Alpha virt. eigenvalues --    0.51223   0.51525   0.51982   0.56752   0.58669
 Alpha virt. eigenvalues --    0.61286   0.68170   0.70264   0.72099   0.79424
 Alpha virt. eigenvalues --    0.80219   0.83752   0.84897   0.86347   0.87861
 Alpha virt. eigenvalues --    0.89866   0.93196   1.03104   1.23864   1.29288
 Alpha virt. eigenvalues --    1.31206   1.45013   1.52270   1.53670   1.56113
 Alpha virt. eigenvalues --    1.62546   1.67018   1.75252   1.82329   1.89133
 Alpha virt. eigenvalues --    1.94442   1.98678   2.02529   2.03647   2.07237
 Alpha virt. eigenvalues --    2.09761   2.10426   2.21343   2.28661   2.32319
 Alpha virt. eigenvalues --    2.37780   2.48895   2.49921   2.67715   2.73406
 Alpha virt. eigenvalues --    2.76186   2.81716   2.84751   2.92620   2.92967
 Alpha virt. eigenvalues --    3.09345   3.20644   3.32618   3.35695   3.44295
 Alpha virt. eigenvalues --    3.49656   4.02983   4.19136   4.43784   4.70712
          Condensed to atoms (all electrons):
               1          2          3          4          5          6
     1  N    6.686155   0.869297  -0.087503  -0.000497  -0.000500  -0.001177
     2  C    0.869297   4.612810   0.295493  -0.033566  -0.033575  -0.039792
     3  C   -0.087503   0.295493   5.008966   0.384123   0.384146   0.357817
     4  H   -0.000497  -0.033566   0.384123   0.561593  -0.031666  -0.033246
     5  H   -0.000500  -0.033575   0.384146  -0.031666   0.561574  -0.033250
     6  C   -0.001177  -0.039792   0.357817  -0.033246  -0.033250   4.903222
     7  H   -0.000007   0.004603  -0.029990  -0.003123  -0.003127   0.380918
     8  H    0.000168  -0.004517  -0.032324   0.004499  -0.004207   0.392047
     9  H    0.000167  -0.004516  -0.032320  -0.004210   0.004499   0.392048
               7          8          9
     1  N   -0.000007   0.000168   0.000167
     2  C    0.004603  -0.004517  -0.004516
     3  C   -0.029990  -0.032324  -0.032320
     4  H   -0.003123   0.004499  -0.004210
     5  H   -0.003127  -0.004207   0.004499
     6  C    0.380918   0.392047   0.392048
     7  H    0.587026  -0.028406  -0.028405
     8  H   -0.028406   0.568600  -0.029173
     9  H   -0.028405  -0.029173   0.568598
 Mulliken charges:
               1
     1  N   -0.466104
     2  C    0.333763
     3  C   -0.248409
     4  H    0.156093
     5  H    0.156106
     6  C   -0.318587
     7  H    0.120512
     8  H    0.133314
     9  H    0.133312
 Sum of Mulliken charges =  -0.00000
 Mulliken charges with hydrogens summed into heavy atoms:
               1
     1  N   -0.466104
     2  C    0.333763
     3  C    0.063790
     6  C    0.068550
 APT charges:
               1
     1  N   -0.307004
     2  C    0.082038
     3  C    0.154392
     4  H   -0.001215
     5  H   -0.001209
     6  C    0.094994
     7  H   -0.015922
     8  H   -0.003036
     9  H   -0.003038
 Sum of APT charges =   0.00000
 APT charges with hydrogens summed into heavy atoms:
               1
     1  N   -0.307004
     2  C    0.082038
     3  C    0.151968
     6  C    0.072998
 Electronic spatial extent (au):  <R**2>=            315.8212
 Charge=             -0.0000 electrons
 Dipole moment (field-independent basis, Debye):
    X=             -3.7121    Y=              1.2585    Z=             -0.0000  Tot=              3.9196
 Quadrupole moment (field-independent basis, Debye-Ang):
   XX=            -30.5076   YY=            -23.5302   ZZ=            -23.5781
   XY=              1.3305   XZ=              0.0002   YZ=             -0.0000
 Traceless Quadrupole moment (field-independent basis, Debye-Ang):
   XX=             -4.6356   YY=              2.3418   ZZ=              2.2938
   XY=              1.3305   XZ=              0.0002   YZ=             -0.0000
 Octapole moment (field-independent basis, Debye-Ang**2):
  XXX=            -18.8660  YYY=              1.4598  ZZZ=              0.0000  XYY=             -1.7941
  XXY=              3.6324  XXZ=             -0.0002  XZZ=             -0.9123  YZZ=              0.5232
  YYZ=             -0.0001  XYZ=              0.0002
 Hexadecapole moment (field-independent basis, Debye-Ang**3):
 XXXX=           -343.2985 YYYY=            -70.5696 ZZZZ=            -35.6043 XXXY=              5.9075
 XXXZ=              0.0020 YYYX=              0.1198 YYYZ=              0.0007 ZZZX=             -0.0007
 ZZZY=             -0.0007 XXYY=            -65.4362 XXZZ=            -58.5120 YYZZ=            -15.4657
 XXYZ=             -0.0008 YYXZ=              0.0000 ZZXY=              0.2931
 N-N= 1.025739221804D+02 E-N=-6.039501074985D+02  KE= 1.703970205056D+02
  Exact polarizability:  44.986  -4.159  30.038  -0.000   0.001  27.073
 Approx polarizability:  67.353 -11.953  42.079  -0.002   0.001  37.261
 Calling FoFJK, ICntrl=    100127 FMM=F ISym2X=0 I1Cent= 0 IOpClX= 0 NMat=1 NMatS=1 NMatT=0.
 Full mass-weighted force constant matrix:
 Low frequencies ---   -6.1302   -5.9035   -0.0010   -0.0009    0.0006    3.3328
 Low frequencies ---  212.9644  223.2714  396.0311
 Diagonal vibrational polarizability:
        1.1446868       1.8472446       0.9459476
 Harmonic frequencies (cm**-1), IR intensities (KM/Mole), Raman scattering
 activities (A**4/AMU), depolarization ratios for plane and unpolarized
 incident light, reduced masses (AMU), force constants (mDyne/A),
 and normal coordinates:
                           1         2         3         4         5
                           A         A         A         A         A
       Frequencies ---   212.9642  223.2714  396.0310  547.7538  793.0889
    Reduced masses ---     4.0415    1.1613    2.9182    4.9307    1.1965
   Force constants ---     0.1080    0.0341    0.2697    0.8716    0.4434
    IR Intensities ---     4.1519    1.0560    0.3778    0.9919    4.0933
 Coord Atom Element:
   1     1     7         -0.21837   0.00011  -0.00003   0.04680  -0.00002
   2     1     7         -0.22863   0.00011   0.00001  -0.17523   0.00000
   3     1     7          0.00014   0.07903  -0.18466  -0.00002  -0.01613
   1     2     6         -0.03732   0.00001  -0.00001   0.27699  -0.00000
   2     2     6          0.20588  -0.00011  -0.00002   0.42221   0.00001
   3     2     6         -0.00011  -0.05691   0.36005   0.00003   0.07217
   1     3     6         -0.03321   0.00001   0.00001  -0.01568   0.00001
   2     3     6          0.18672  -0.00009  -0.00000  -0.12969  -0.00003
   3     3     6         -0.00009  -0.05504  -0.05775   0.00001  -0.10243
   1     4     1         -0.13916   0.04401  -0.28224  -0.22507  -0.11348
   2     4     1          0.15563  -0.00076   0.35215  -0.12448  -0.45586
   3     4     1          0.00724  -0.04805  -0.35619  -0.02910   0.22420
   1     5     1         -0.13933  -0.04390   0.28236  -0.22502   0.11350
   2     5     1          0.15568   0.00060  -0.35225  -0.12455   0.45594
   3     5     1         -0.00736  -0.04805  -0.35616   0.02904   0.22418
   1     6     6          0.25960  -0.00013   0.00002  -0.19975   0.00001
   2     6     6         -0.10328   0.00005   0.00001  -0.07775  -0.00000
   3     6     6          0.00002   0.01759  -0.02263  -0.00001  -0.03398
   1     7     1          0.11310  -0.00016  -0.00003  -0.03154  -0.00004
   2     7     1         -0.42460   0.00031   0.00004   0.30282   0.00001
   3     7     1          0.00105   0.60983   0.22265   0.00003   0.19437
   1     8     1          0.47360  -0.38372  -0.15057  -0.45082  -0.26362
   2     8     1         -0.07692   0.31093   0.13884  -0.08812  -0.31948
   3     8     1          0.00291  -0.24427  -0.13736  -0.01575   0.17315
   1     9     1          0.47485   0.38338   0.15068  -0.45073   0.26362
   2     9     1         -0.07809  -0.31093  -0.13886  -0.08816   0.31956
   3     9     1         -0.00377  -0.24404  -0.13727   0.01561   0.17313
                           6         7         8         9        10
                           A         A         A         A         A
       Frequencies ---   844.3192 1018.7402 1096.3990 1116.8501 1291.5528
    Reduced masses ---     2.9426    2.6938    1.7190    1.4985    1.1461
   Force constants ---     1.2359    1.6472    1.2175    1.1013    1.1264
    IR Intensities ---     0.1534    0.2946    4.3863    0.2849    0.0157
 Coord Atom Element:
   1     1     7          0.18668  -0.10325   0.03063   0.00001   0.00001
   2     1     7         -0.06549   0.04269   0.00109  -0.00000  -0.00001
   3     1     7         -0.00001   0.00001  -0.00001   0.01542   0.00651
   1     2     6          0.11810  -0.05173  -0.01352  -0.00000   0.00000
   2     2     6         -0.08188   0.04751  -0.07005  -0.00001   0.00001
   3     2     6          0.00004  -0.00002   0.00003  -0.09077  -0.04629
   1     3     6         -0.14588   0.27420   0.01138  -0.00003  -0.00008
   2     3     6          0.23178   0.08463   0.18140   0.00005  -0.00000
   3     3     6         -0.00002   0.00001  -0.00005   0.15735  -0.03568
   1     4     1         -0.06626   0.55927  -0.23713  -0.41741  -0.61148
   2     4     1          0.23029   0.14510   0.09084   0.27396  -0.17781
   3     4     1          0.01019  -0.00329   0.03253  -0.10585   0.01158
   1     5     1         -0.06620   0.55926  -0.23738   0.41742   0.61201
   2     5     1          0.23040   0.14505   0.09095  -0.27401   0.17801
   3     5     1         -0.01017   0.00328  -0.03251  -0.10587   0.01163
   1     6     6         -0.17761  -0.16430   0.05496   0.00002   0.00002
   2     6     6         -0.05044  -0.15602  -0.14980  -0.00004  -0.00002
   3     6     6         -0.00001  -0.00001   0.00003  -0.10658   0.09548
   1     7     1         -0.44864  -0.20669   0.33449   0.00001   0.00013
   2     7     1         -0.64414  -0.25133   0.48709   0.00013   0.00008
   3     7     1          0.00003   0.00003  -0.00001   0.24205  -0.15824
   1     8     1          0.21640  -0.08498  -0.45722  -0.24939   0.13448
   2     8     1         -0.04539  -0.17382  -0.11306  -0.33510   0.23168
   3     8     1          0.03200   0.01543  -0.07561   0.11587  -0.05821
   1     9     1          0.21641  -0.08494  -0.45726   0.24926  -0.13466
   2     9     1         -0.04542  -0.17383  -0.11304   0.33514  -0.23172
   3     9     1         -0.03191  -0.01542   0.07550   0.11588  -0.05812
                          11        12        13        14        15
                           A         A         A         A         A
       Frequencies ---  1355.9793 1429.2707 1484.5133 1510.9288 1519.0886
    Reduced masses ---     1.4582    1.2100    1.0757    1.0379    1.0522
   Force constants ---     1.5797    1.4564    1.3967    1.3961    1.4306
    IR Intensities ---     3.6945    0.6976    4.0866    6.2530    4.8125
 Coord Atom Element:
   1     1     7         -0.01699   0.00273   0.00044  -0.00000  -0.00446
   2     1     7          0.01140   0.00015   0.00172   0.00000   0.00184
   3     1     7          0.00000  -0.00000  -0.00000   0.00021   0.00000
   1     2     6         -0.01393  -0.00248  -0.00464  -0.00000  -0.00060
   2     2     6         -0.02324  -0.00289  -0.01207  -0.00000  -0.00144
   3     2     6         -0.00003  -0.00000  -0.00000  -0.00051  -0.00000
   1     3     6          0.18480   0.00852   0.02921   0.00003   0.03221
   2     3     6          0.02456   0.00614  -0.07127  -0.00002  -0.02234
   3     3     6         -0.00001  -0.00000   0.00002  -0.01827   0.00002
   1     4     1         -0.61717  -0.03157  -0.16331  -0.03195  -0.08102
   2     4     1         -0.21481  -0.01289   0.51541  -0.03401   0.05948
   3     4     1          0.06125   0.00895  -0.43382  -0.00035  -0.07423
   1     5     1         -0.61642  -0.03154  -0.16329   0.03180  -0.08102
   2     5     1         -0.21465  -0.01287   0.51537   0.03413   0.05944
   3     5     1         -0.06124  -0.00894   0.43370  -0.00021   0.07421
   1     6     6         -0.05379  -0.09958  -0.00723   0.00002   0.03135
   2     6     6          0.04581  -0.09136   0.00425  -0.00003  -0.03857
   3     6     6          0.00004   0.00001  -0.00000  -0.04903   0.00004
   1     7     1         -0.14912   0.20381   0.02593  -0.00020  -0.13345
   2     7     1         -0.16700   0.53908   0.06227  -0.00008  -0.35611
   3     7     1         -0.00011  -0.00009  -0.00005   0.70448  -0.00036
   1     8     1          0.11236   0.46756   0.04401   0.49396  -0.19631
   2     8     1         -0.06146   0.26685  -0.08760  -0.04090   0.47700
   3     8     1          0.08820  -0.18354   0.06771   0.05021  -0.37970
   1     9     1          0.11232   0.46749   0.04412  -0.49414  -0.19588
   2     9     1         -0.06171   0.26687  -0.08763   0.04145   0.47705
   3     9     1         -0.08818   0.18360  -0.06768   0.05044   0.37941
                          16        17        18        19        20
                           A         A         A         A         A
       Frequencies ---  2369.7309 3055.2317 3063.6021 3092.0313 3141.2885
    Reduced masses ---    12.6054    1.0593    1.0350    1.1034    1.1036
   Force constants ---    41.7065    5.8257    5.7232    6.2154    6.4160
    IR Intensities ---     7.5551    6.1327   18.8846    2.4051   18.4891
 Coord Atom Element:
   1     1     7         -0.54498  -0.00169  -0.00067   0.00001   0.00020
   2     1     7          0.22419   0.00056   0.00028  -0.00000  -0.00020
   3     1     7          0.00004  -0.00000  -0.00000  -0.00014   0.00000
   1     2     6          0.73741   0.00231   0.00114  -0.00001   0.00024
   2     2     6         -0.30251  -0.00113  -0.00056   0.00001   0.00023
   3     2     6         -0.00004  -0.00000  -0.00000  -0.00073  -0.00000
   1     3     6         -0.08781   0.01204   0.00223  -0.00006  -0.00134
   2     3     6          0.03831  -0.06654  -0.00868   0.00034   0.00538
   3     3     6         -0.00000  -0.00044  -0.00007  -0.09153   0.00009
   1     4     1         -0.05300  -0.07519  -0.01160  -0.07650   0.00464
   2     4     1          0.02127   0.39779   0.05713   0.40792  -0.03146
   3     4     1         -0.01958   0.57055   0.08233   0.54786  -0.04188
   1     5     1         -0.05300  -0.07440  -0.01148   0.07725   0.00452
   2     5     1          0.02129   0.39366   0.05649  -0.41193  -0.03060
   3     5     1          0.01955  -0.56519  -0.08150   0.55378   0.04076
   1     6     6         -0.00660   0.00109  -0.03773   0.00003  -0.06428
   2     6     6         -0.00257   0.00982  -0.03103  -0.00004   0.06743
   3     6     6         -0.00000   0.00006  -0.00003   0.01779   0.00055
   1     7     1         -0.00619  -0.03080   0.55053  -0.00037   0.71285
   2     7     1          0.02036   0.01291  -0.26425   0.00019  -0.32874
   3     7     1         -0.00000   0.00001   0.00014   0.00514   0.00029
   1     8     1          0.01411   0.01011  -0.05455   0.01488   0.02727
   2     8     1         -0.00074  -0.06195   0.31327  -0.07834  -0.24067
   3     8     1         -0.00582  -0.09262   0.44869  -0.10887  -0.36036
   1     9     1          0.01410   0.00998  -0.05437  -0.01488   0.02636
   2     9     1         -0.00074  -0.06140   0.31291   0.07856  -0.23553
   3     9     1          0.00583   0.09191  -0.44853  -0.10930   0.35355
                          21
                           A
       Frequencies ---  3146.3098
    Reduced masses ---     1.1043
   Force constants ---     6.4408
    IR Intensities ---    18.0378
 Coord Atom Element:
   1     1     7          0.00000
   2     1     7         -0.00000
   3     1     7         -0.00002
   1     2     6          0.00000
   2     2     6          0.00000
   3     2     6         -0.00001
   1     3     6         -0.00001
   2     3     6          0.00006
   3     3     6         -0.01799
   1     4     1         -0.01203
   2     4     1          0.08091
   3     4     1          0.10686
   1     5     1          0.01214
   2     5     1         -0.08158
   3     5     1          0.10780
   1     6     6         -0.00037
   2     6     6          0.00041
   3     6     6         -0.09194
   1     7     1          0.00418
   2     7     1         -0.00192
   3     7     1         -0.01722
   1     8     1         -0.06389
   2     8     1          0.40352
   3     8     1          0.55348
   1     9     1          0.06408
   2     9     1         -0.40650
   3     9     1          0.55837
 Harmonic frequencies (cm**-1), IR intensities (KM/Mole), Raman scattering
 activities (A**4/AMU), depolarization ratios for plane and unpolarized
 incident light, reduced masses (AMU), force constants (mDyne/A),
 and normal coordinates:
                      1                      2                      3
                      A                      A                      A
 Frequencies --    212.9642               223.2714               396.0310
 Red. masses --      4.0415                 1.1613                 2.9182
 Frc consts  --      0.1080                 0.0341                 0.2697
 IR Inten    --      4.1519                 1.0560                 0.3778
  Atom  AN      X      Y      Z        X      Y      Z        X      Y      Z
     1   7    -0.22  -0.23   0.00     0.00   0.00   0.08    -0.00   0.00  -0.18
     2   6    -0.04   0.21  -0.00     0.00  -0.00  -0.06    -0.00  -0.00   0.36
     3   6    -0.03   0.19  -0.00     0.00  -0.00  -0.06     0.00  -0.00  -0.06
     4   1    -0.14   0.16   0.01     0.04  -0.00  -0.05    -0.28   0.35  -0.36
     5   1    -0.14   0.16  -0.01    -0.04   0.00  -0.05     0.28  -0.35  -0.36
     6   6     0.26  -0.10   0.00    -0.00   0.00   0.02     0.00   0.00  -0.02
     7   1     0.11  -0.42   0.00    -0.00   0.00   0.61    -0.00   0.00   0.22
     8   1     0.47  -0.08   0.00    -0.38   0.31  -0.24    -0.15   0.14  -0.14
     9   1     0.47  -0.08  -0.00     0.38  -0.31  -0.24     0.15  -0.14  -0.14
                      4                      5                      6
                      A                      A                      A
 Frequencies --    547.7538               793.0889               844.3192
 Red. masses --      4.9307                 1.1965                 2.9426
 Frc consts  --      0.8716                 0.4434                 1.2359
 IR Inten    --      0.9919                 4.0933                 0.1534
  Atom  AN      X      Y      Z        X      Y      Z        X      Y      Z
     1   7     0.05  -0.18  -0.00    -0.00   0.00  -0.02     0.19  -0.07  -0.00
     2   6     0.28   0.42   0.00    -0.00   0.00   0.07     0.12  -0.08   0.00
     3   6    -0.02  -0.13   0.00     0.00  -0.00  -0.10    -0.15   0.23  -0.00
     4   1    -0.23  -0.12  -0.03    -0.11  -0.46   0.22    -0.07   0.23   0.01
     5   1    -0.23  -0.12   0.03     0.11   0.46   0.22    -0.07   0.23  -0.01
     6   6    -0.20  -0.08  -0.00     0.00  -0.00  -0.03    -0.18  -0.05  -0.00
     7   1    -0.03   0.30   0.00    -0.00   0.00   0.19    -0.45  -0.64   0.00
     8   1    -0.45  -0.09  -0.02    -0.26  -0.32   0.17     0.22  -0.05   0.03
     9   1    -0.45  -0.09   0.02     0.26   0.32   0.17     0.22  -0.05  -0.03
                      7                      8                      9
                      A                      A                      A
 Frequencies --   1018.7402              1096.3990              1116.8501
 Red. masses --      2.6938                 1.7190                 1.4985
 Frc consts  --      1.6472                 1.2175                 1.1013
 IR Inten    --      0.2946                 4.3863                 0.2849
  Atom  AN      X      Y      Z        X      Y      Z        X      Y      Z
     1   7    -0.10   0.04   0.00     0.03   0.00  -0.00     0.00  -0.00   0.02
     2   6    -0.05   0.05  -0.00    -0.01  -0.07   0.00    -0.00  -0.00  -0.09
     3   6     0.27   0.08   0.00     0.01   0.18  -0.00    -0.00   0.00   0.16
     4   1     0.56   0.15  -0.00    -0.24   0.09   0.03    -0.42   0.27  -0.11
     5   1     0.56   0.15   0.00    -0.24   0.09  -0.03     0.42  -0.27  -0.11
     6   6    -0.16  -0.16  -0.00     0.05  -0.15   0.00     0.00  -0.00  -0.11
     7   1    -0.21  -0.25   0.00     0.33   0.49  -0.00     0.00   0.00   0.24
     8   1    -0.08  -0.17   0.02    -0.46  -0.11  -0.08    -0.25  -0.34   0.12
     9   1    -0.08  -0.17  -0.02    -0.46  -0.11   0.08     0.25   0.34   0.12
                     10                     11                     12
                      A                      A                      A
 Frequencies --   1291.5528              1355.9793              1429.2707
 Red. masses --      1.1461                 1.4582                 1.2100
 Frc consts  --      1.1264                 1.5797                 1.4564
 IR Inten    --      0.0157                 3.6945                 0.6976
  Atom  AN      X      Y      Z        X      Y      Z        X      Y      Z
     1   7     0.00  -0.00   0.01    -0.02   0.01   0.00     0.00   0.00  -0.00
     2   6     0.00   0.00  -0.05    -0.01  -0.02  -0.00    -0.00  -0.00  -0.00
     3   6    -0.00  -0.00  -0.04     0.18   0.02  -0.00     0.01   0.01  -0.00
     4   1    -0.61  -0.18   0.01    -0.62  -0.21   0.06    -0.03  -0.01   0.01
     5   1     0.61   0.18   0.01    -0.62  -0.21  -0.06    -0.03  -0.01  -0.01
     6   6     0.00  -0.00   0.10    -0.05   0.05   0.00    -0.10  -0.09   0.00
     7   1     0.00   0.00  -0.16    -0.15  -0.17  -0.00     0.20   0.54  -0.00
     8   1     0.13   0.23  -0.06     0.11  -0.06   0.09     0.47   0.27  -0.18
     9   1    -0.13  -0.23  -0.06     0.11  -0.06  -0.09     0.47   0.27   0.18
                     13                     14                     15
                      A                      A                      A
 Frequencies --   1484.5133              1510.9288              1519.0886
 Red. masses --      1.0757                 1.0379                 1.0522
 Frc consts  --      1.3967                 1.3961                 1.4306
 IR Inten    --      4.0866                 6.2530                 4.8125
  Atom  AN      X      Y      Z        X      Y      Z        X      Y      Z
     1   7     0.00   0.00  -0.00    -0.00   0.00   0.00    -0.00   0.00   0.00
     2   6    -0.00  -0.01  -0.00    -0.00  -0.00  -0.00    -0.00  -0.00  -0.00
     3   6     0.03  -0.07   0.00     0.00  -0.00  -0.02     0.03  -0.02   0.00
     4   1    -0.16   0.52  -0.43    -0.03  -0.03  -0.00    -0.08   0.06  -0.07
     5   1    -0.16   0.52   0.43     0.03   0.03  -0.00    -0.08   0.06   0.07
     6   6    -0.01   0.00  -0.00     0.00  -0.00  -0.05     0.03  -0.04   0.00
     7   1     0.03   0.06  -0.00    -0.00  -0.00   0.70    -0.13  -0.36  -0.00
     8   1     0.04  -0.09   0.07     0.49  -0.04   0.05    -0.20   0.48  -0.38
     9   1     0.04  -0.09  -0.07    -0.49   0.04   0.05    -0.20   0.48   0.38
                     16                     17                     18
                      A                      A                      A
 Frequencies --   2369.7309              3055.2317              3063.6021
 Red. masses --     12.6054                 1.0593                 1.0350
 Frc consts  --     41.7065                 5.8257                 5.7232
 IR Inten    --      7.5551                 6.1327                18.8846
  Atom  AN      X      Y      Z        X      Y      Z        X      Y      Z
     1   7    -0.54   0.22   0.00    -0.00   0.00  -0.00    -0.00   0.00  -0.00
     2   6     0.74  -0.30  -0.00     0.00  -0.00  -0.00     0.00  -0.00  -0.00
     3   6    -0.09   0.04  -0.00     0.01  -0.07  -0.00     0.00  -0.01  -0.00
     4   1    -0.05   0.02  -0.02    -0.08   0.40   0.57    -0.01   0.06   0.08
     5   1    -0.05   0.02   0.02    -0.07   0.39  -0.57    -0.01   0.06  -0.08
     6   6    -0.01  -0.00  -0.00     0.00   0.01   0.00    -0.04  -0.03  -0.00
     7   1    -0.01   0.02  -0.00    -0.03   0.01   0.00     0.55  -0.26   0.00
     8   1     0.01  -0.00  -0.01     0.01  -0.06  -0.09    -0.05   0.31   0.45
     9   1     0.01  -0.00   0.01     0.01  -0.06   0.09    -0.05   0.31  -0.45
                     19                     20                     21
                      A                      A                      A
 Frequencies --   3092.0313              3141.2885              3146.3098
 Red. masses --      1.1034                 1.1036                 1.1043
 Frc consts  --      6.2154                 6.4160                 6.4408
 IR Inten    --      2.4051                18.4891                18.0378
  Atom  AN      X      Y      Z        X      Y      Z        X      Y      Z
     1   7     0.00  -0.00  -0.00     0.00  -0.00   0.00     0.00  -0.00  -0.00
     2   6    -0.00   0.00  -0.00     0.00   0.00  -0.00     0.00   0.00  -0.00
     3   6    -0.00   0.00  -0.09    -0.00   0.01   0.00    -0.00   0.00  -0.02
     4   1    -0.08   0.41   0.55     0.00  -0.03  -0.04    -0.01   0.08   0.11
     5   1     0.08  -0.41   0.55     0.00  -0.03   0.04     0.01  -0.08   0.11
     6   6     0.00  -0.00   0.02    -0.06   0.07   0.00    -0.00   0.00  -0.09
     7   1    -0.00   0.00   0.01     0.71  -0.33   0.00     0.00  -0.00  -0.02
     8   1     0.01  -0.08  -0.11     0.03  -0.24  -0.36    -0.06   0.40   0.55
     9   1    -0.01   0.08  -0.11     0.03  -0.24   0.35     0.06  -0.41   0.56

 -------------------
 - Thermochemistry -
 -------------------
 Temperature   298.150 Kelvin.  Pressure   1.00000 Atm.
 Atom     1 has atomic number  7 and mass  14.00307
 Atom     2 has atomic number  6 and mass  12.00000
 Atom     3 has atomic number  6 and mass  12.00000
 Atom     4 has atomic number  1 and mass   1.00783
 Atom     5 has atomic number  1 and mass   1.00783
 Atom     6 has atomic number  6 and mass  12.00000
 Atom     7 has atomic number  1 and mass   1.00783
 Atom     8 has atomic number  1 and mass   1.00783
 Atom     9 has atomic number  1 and mass   1.00783
 Molecular mass:    55.04220 amu.
 Principal axes and moments of inertia in atomic units:
                           1         2         3
     Eigenvalues --    64.47362 387.95660 430.02330
           X            0.99985   0.01729   0.00000
           Y           -0.01729   0.99985  -0.00000
           Z           -0.00000   0.00000   1.00000
 This molecule is an asymmetric top.
 Rotational symmetry number  1.
 Rotational temperatures (Kelvin)      1.34340     0.22326     0.20142
 Rotational constants (GHZ):          27.99193     4.65192     4.19685
 Zero-point vibrational energy     195642.9 (Joules/Mol)
                                   46.75978 (Kcal/Mol)
 Warning -- explicit consideration of   4 degrees of freedom as
           vibrations may cause significant error
 Vibrational temperatures:    306.41   321.24   569.80   788.10  1141.08
          (Kelvin)           1214.79  1465.74  1577.47  1606.90  1858.26
                             1950.95  2056.40  2135.88  2173.89  2185.63
                             3409.51  4395.80  4407.84  4448.74  4519.61
                             4526.84
 
 Zero-point correction=                           0.074516 (Hartree/Particle)
 Thermal correction to Energy=                    0.079191
 Thermal correction to Enthalpy=                  0.080135
 Thermal correction to Gibbs Free Energy=         0.047825
 Sum of electronic and zero-point Energies=           -172.001077
 Sum of electronic and thermal Energies=              -171.996403
 Sum of electronic and thermal Enthalpies=            -171.995458
 Sum of electronic and thermal Free Energies=         -172.027768
 
                     E (Thermal)             CV                S
                      KCal/Mol        Cal/Mol-Kelvin    Cal/Mol-Kelvin
 Total                   49.693             14.956             68.001
 Electronic               0.000              0.000              0.000
 Translational            0.889              2.981             37.938
 Rotational               0.889              2.981             23.890
 Vibrational             47.915              8.994              6.173
 Vibration     1          0.644              1.821              2.018
 Vibration     2          0.649              1.806              1.932
 Vibration     3          0.763              1.479              0.977
 Vibration     4          0.903              1.145              0.549
                       Q            Log10(Q)             Ln(Q)
 Total Bot       0.100440D-21        -21.998095        -50.652485
 Total V=0       0.189264D+13         12.277068         28.268993
 Vib (Bot)       0.168552D-33        -33.773266        -77.765820
 Vib (Bot)    1  0.931512D+00         -0.030812         -0.070947
 Vib (Bot)    2  0.884711D+00         -0.053199         -0.122495
 Vib (Bot)    3  0.451359D+00         -0.345477         -0.795491
 Vib (Bot)    4  0.287119D+00         -0.541938         -1.247859
 Vib (V=0)       0.317611D+01          0.501896          1.155658
 Vib (V=0)    1  0.155722D+01          0.192350          0.442902
 Vib (V=0)    2  0.151622D+01          0.180764          0.416224
 Vib (V=0)    3  0.117359D+01          0.069517          0.160069
 Vib (V=0)    4  0.107657D+01          0.032044          0.073783
 Electronic      0.100000D+01          0.000000          0.000000
 Translational   0.160508D+08          7.205498         16.591271
 Rotational      0.371257D+05          4.569674         10.522064
                           ----------------------------
                           ! Normal Mode     1        !
 --------------------------                            --------------------------
 ! Name  Definition              Value          Relative Weight (%)             !
 --------------------------------------------------------------------------------
 ! R1    R(1,2)                 -0.002                   0.2                    !
 ! R2    R(2,3)                 -0.0109                  1.3                    !
 ! R3    R(3,4)                 -0.0018                  0.2                    !
 ! R4    R(3,5)                 -0.0018                  0.2                    !
 ! R5    R(3,6)                  0.0027                  0.3                    !
 ! R6    R(6,7)                 -0.0004                  0.0                    !
 ! R7    R(6,8)                 -0.0001                  0.0                    !
 ! R8    R(6,9)                 -0.0001                  0.0                    !
 ! A1    A(2,3,4)                0.0413                  4.8                    !
 ! A2    A(2,3,5)                0.0414                  4.8                    !
 ! A3    A(2,3,6)               -0.1359                 15.7                    !
 ! A4    A(4,3,5)                0.0141                  1.6                    !
 ! A5    A(4,3,6)                0.0238                  2.8                    !
 ! A6    A(5,3,6)                0.0238                  2.8                    !
 ! A7    A(3,6,7)                0.0292                  3.4                    !
 ! A8    A(3,6,8)               -0.0169                  2.0                    !
 ! A9    A(3,6,9)               -0.0169                  2.0                    !
 ! A10   A(7,6,8)                0.0052                  0.6                    !
 ! A11   A(7,6,9)                0.0052                  0.6                    !
 ! A12   A(8,6,9)               -0.0054                  0.6                    !
 ! A13   L(1,2,3,8,-1)          -0.2016                 23.3                    !
 ! A14   L(1,2,3,8,-2)          -0.1131                 13.1                    !
 ! D1    D(2,3,6,7)             -0.0005                  0.1                    !
 ! D2    D(2,3,6,8)              0.0141                  1.6                    !
 ! D3    D(2,3,6,9)             -0.0152                  1.8                    !
 ! D4    D(4,3,6,7)              0.0231                  2.7                    !
 ! D5    D(4,3,6,8)              0.0377                  4.4                    !
 ! D6    D(4,3,6,9)              0.0084                  1.0                    !
 ! D7    D(5,3,6,7)             -0.024                   2.8                    !
 ! D8    D(5,3,6,8)             -0.0093                  1.1                    !
 ! D9    D(5,3,6,9)             -0.0386                  4.5                    !
 --------------------------------------------------------------------------------
                           ----------------------------
                           ! Normal Mode     2        !
 --------------------------                            --------------------------
 ! Name  Definition              Value          Relative Weight (%)             !
 --------------------------------------------------------------------------------
 ! R1    R(1,2)                  0.0                     0.0                    !
 ! R2    R(2,3)                  0.0                     0.0                    !
 ! R3    R(3,4)                  0.0008                  0.0                    !
 ! R4    R(3,5)                 -0.0008                  0.0                    !
 ! R5    R(3,6)                  0.0                     0.0                    !
 ! R6    R(6,7)                  0.0                     0.0                    !
 ! R7    R(6,8)                  0.0002                  0.0                    !
 ! R8    R(6,9)                 -0.0002                  0.0                    !
 ! A1    A(2,3,4)               -0.0204                  0.8                    !
 ! A2    A(2,3,5)                0.0204                  0.8                    !
 ! A3    A(2,3,6)                0.0001                  0.0                    !
 ! A4    A(4,3,5)                0.0                     0.0                    !
 ! A5    A(4,3,6)               -0.006                   0.2                    !
 ! A6    A(5,3,6)                0.0059                  0.2                    !
 ! A7    A(3,6,7)                0.0                     0.0                    !
 ! A8    A(3,6,8)                0.002                   0.1                    !
 ! A9    A(3,6,9)               -0.002                   0.1                    !
 ! A10   A(7,6,8)                0.0007                  0.0                    !
 ! A11   A(7,6,9)               -0.0007                  0.0                    !
 ! A12   A(8,6,9)                0.0                     0.0                    !
 ! A13   L(1,2,3,8,-1)           0.0258                  1.0                    !
 ! A14   L(1,2,3,8,-2)          -0.0741                  2.7                    !
 ! D1    D(2,3,6,7)             -0.3054                 11.3                    !
 ! D2    D(2,3,6,8)             -0.3032                 11.2                    !
 ! D3    D(2,3,6,9)             -0.3032                 11.2                    !
 ! D4    D(4,3,6,7)             -0.2749                 10.1                    !
 ! D5    D(4,3,6,8)             -0.2727                 10.1                    !
 ! D6    D(4,3,6,9)             -0.2727                 10.1                    !
 ! D7    D(5,3,6,7)             -0.2748                 10.1                    !
 ! D8    D(5,3,6,8)             -0.2727                 10.1                    !
 ! D9    D(5,3,6,9)             -0.2727                 10.1                    !
 --------------------------------------------------------------------------------
                           ----------------------------
                           ! Normal Mode     3        !
 --------------------------                            --------------------------
 ! Name  Definition              Value          Relative Weight (%)             !
 --------------------------------------------------------------------------------
 ! R1    R(1,2)                  0.0                     0.0                    !
 ! R2    R(2,3)                  0.0                     0.0                    !
 ! R3    R(3,4)                 -0.0036                  0.1                    !
 ! R4    R(3,5)                  0.0036                  0.1                    !
 ! R5    R(3,6)                  0.0                     0.0                    !
 ! R6    R(6,7)                  0.0                     0.0                    !
 ! R7    R(6,8)                  0.0                     0.0                    !
 ! R8    R(6,9)                  0.0                     0.0                    !
 ! A1    A(2,3,4)                0.0725                  1.8                    !
 ! A2    A(2,3,5)               -0.0726                  1.8                    !
 ! A3    A(2,3,6)                0.0                     0.0                    !
 ! A4    A(4,3,5)                0.0                     0.0                    !
 ! A5    A(4,3,6)                0.0184                  0.4                    !
 ! A6    A(5,3,6)               -0.0184                  0.4                    !
 ! A7    A(3,6,7)                0.0                     0.0                    !
 ! A8    A(3,6,8)               -0.0074                  0.2                    !
 ! A9    A(3,6,9)                0.0074                  0.2                    !
 ! A10   A(7,6,8)                0.002                   0.0                    !
 ! A11   A(7,6,9)               -0.002                   0.0                    !
 ! A12   A(8,6,9)                0.0                     0.0                    !
 ! A13   L(1,2,3,8,-1)          -0.1616                  3.9                    !
 ! A14   L(1,2,3,8,-2)           0.4635                 11.3                    !
 ! D1    D(2,3,6,7)             -0.2904                  7.1                    !
 ! D2    D(2,3,6,8)             -0.2926                  7.1                    !
 ! D3    D(2,3,6,9)             -0.2926                  7.1                    !
 ! D4    D(4,3,6,7)             -0.3967                  9.7                    !
 ! D5    D(4,3,6,8)             -0.3989                  9.7                    !
 ! D6    D(4,3,6,9)             -0.3989                  9.7                    !
 ! D7    D(5,3,6,7)             -0.3968                  9.7                    !
 ! D8    D(5,3,6,8)             -0.399                   9.7                    !
 ! D9    D(5,3,6,9)             -0.399                   9.7                    !
 --------------------------------------------------------------------------------
                           ----------------------------
                           ! Normal Mode     4        !
 --------------------------                            --------------------------
 ! Name  Definition              Value          Relative Weight (%)             !
 --------------------------------------------------------------------------------
 ! R1    R(1,2)                  0.0147                  0.6                    !
 ! R2    R(2,3)                  0.0686                  2.7                    !
 ! R3    R(3,4)                  0.0008                  0.0                    !
 ! R4    R(3,5)                  0.0008                  0.0                    !
 ! R5    R(3,6)                  0.0915                  3.6                    !
 ! R6    R(6,7)                  0.0053                  0.2                    !
 ! R7    R(6,8)                 -0.0018                  0.1                    !
 ! R8    R(6,9)                 -0.0018                  0.1                    !
 ! A1    A(2,3,4)               -0.0206                  0.8                    !
 ! A2    A(2,3,5)               -0.0206                  0.8                    !
 ! A3    A(2,3,6)                0.2819                 11.2                    !
 ! A4    A(4,3,5)               -0.048                   1.9                    !
 ! A5    A(4,3,6)               -0.1035                  4.1                    !
 ! A6    A(5,3,6)               -0.1035                  4.1                    !
 ! A7    A(3,6,7)               -0.1436                  5.7                    !
 ! A8    A(3,6,8)                0.0665                  2.6                    !
 ! A9    A(3,6,9)                0.0665                  2.6                    !
 ! A10   A(7,6,8)               -0.0092                  0.4                    !
 ! A11   A(7,6,9)               -0.0092                  0.4                    !
 ! A12   A(8,6,9)                0.0283                  1.1                    !
 ! A13   L(1,2,3,8,-1)          -0.4717                 18.8                    !
 ! A14   L(1,2,3,8,-2)          -0.2667                 10.6                    !
 ! D1    D(2,3,6,7)             -0.0001                  0.0                    !
 ! D2    D(2,3,6,8)             -0.0624                  2.5                    !
 ! D3    D(2,3,6,9)              0.0623                  2.5                    !
 ! D4    D(4,3,6,7)             -0.094                   3.7                    !
 ! D5    D(4,3,6,8)             -0.1564                  6.2                    !
 ! D6    D(4,3,6,9)             -0.0317                  1.3                    !
 ! D7    D(5,3,6,7)              0.0939                  3.7                    !
 ! D8    D(5,3,6,8)              0.0316                  1.3                    !
 ! D9    D(5,3,6,9)              0.1562                  6.2                    !
 --------------------------------------------------------------------------------
                           ----------------------------
                           ! Normal Mode     5        !
 --------------------------                            --------------------------
 ! Name  Definition              Value          Relative Weight (%)             !
 --------------------------------------------------------------------------------
 ! R1    R(1,2)                  0.0                     0.0                    !
 ! R2    R(2,3)                  0.0                     0.0                    !
 ! R3    R(3,4)                  0.005                   0.2                    !
 ! R4    R(3,5)                 -0.0049                  0.2                    !
 ! R5    R(3,6)                  0.0                     0.0                    !
 ! R6    R(6,7)                  0.0                     0.0                    !
 ! R7    R(6,8)                 -0.0038                  0.1                    !
 ! R8    R(6,9)                  0.0038                  0.1                    !
 ! A1    A(2,3,4)               -0.0857                  3.2                    !
 ! A2    A(2,3,5)                0.0857                  3.2                    !
 ! A3    A(2,3,6)                0.0                     0.0                    !
 ! A4    A(4,3,5)               -0.0001                  0.0                    !
 ! A5    A(4,3,6)               -0.23                    8.5                    !
 ! A6    A(5,3,6)                0.2301                  8.5                    !
 ! A7    A(3,6,7)                0.0                     0.0                    !
 ! A8    A(3,6,8)                0.1943                  7.2                    !
 ! A9    A(3,6,9)               -0.1944                  7.2                    !
 ! A10   A(7,6,8)                0.0405                  1.5                    !
 ! A11   A(7,6,9)               -0.0405                  1.5                    !
 ! A12   A(8,6,9)                0.0                     0.0                    !
 ! A13   L(1,2,3,8,-1)          -0.0424                  1.6                    !
 ! A14   L(1,2,3,8,-2)           0.1217                  4.5                    !
 ! D1    D(2,3,6,7)             -0.1872                  6.9                    !
 ! D2    D(2,3,6,8)             -0.0136                  0.5                    !
 ! D3    D(2,3,6,9)             -0.0136                  0.5                    !
 ! D4    D(4,3,6,7)              0.0873                  3.2                    !
 ! D5    D(4,3,6,8)              0.2609                  9.6                    !
 ! D6    D(4,3,6,9)              0.2609                  9.6                    !
 ! D7    D(5,3,6,7)              0.0874                  3.2                    !
 ! D8    D(5,3,6,8)              0.261                   9.6                    !
 ! D9    D(5,3,6,9)              0.2609                  9.6                    !
 --------------------------------------------------------------------------------
                           ----------------------------
                           ! Normal Mode     6        !
 --------------------------                            --------------------------
 ! Name  Definition              Value          Relative Weight (%)             !
 --------------------------------------------------------------------------------
 ! R1    R(1,2)                  0.0572                  2.4                    !
 ! R2    R(2,3)                  0.361                  15.1                    !
 ! R3    R(3,4)                 -0.0007                  0.0                    !
 ! R4    R(3,5)                 -0.0007                  0.0                    !
 ! R5    R(3,6)                  0.224                   9.3                    !
 ! R6    R(6,7)                 -0.0005                  0.0                    !
 ! R7    R(6,8)                  0.0034                  0.1                    !
 ! R8    R(6,9)                  0.0034                  0.1                    !
 ! A1    A(2,3,4)               -0.0001                  0.0                    !
 ! A2    A(2,3,5)               -0.0001                  0.0                    !
 ! A3    A(2,3,6)               -0.1302                  5.4                    !
 ! A4    A(4,3,5)                0.0174                  0.7                    !
 ! A5    A(4,3,6)                0.0593                  2.5                    !
 ! A6    A(5,3,6)                0.0593                  2.5                    !
 ! A7    A(3,6,7)                0.2559                 10.7                    !
 ! A8    A(3,6,8)               -0.1155                  4.8                    !
 ! A9    A(3,6,9)               -0.1155                  4.8                    !
 ! A10   A(7,6,8)                0.0168                  0.7                    !
 ! A11   A(7,6,9)                0.0168                  0.7                    !
 ! A12   A(8,6,9)               -0.0573                  2.4                    !
 ! A13   L(1,2,3,8,-1)           0.0812                  3.4                    !
 ! A14   L(1,2,3,8,-2)           0.0465                  1.9                    !
 ! D1    D(2,3,6,7)              0.0                     0.0                    !
 ! D2    D(2,3,6,8)              0.1135                  4.7                    !
 ! D3    D(2,3,6,9)             -0.1135                  4.7                    !
 ! D4    D(4,3,6,7)              0.0476                  2.0                    !
 ! D5    D(4,3,6,8)              0.161                   6.7                    !
 ! D6    D(4,3,6,9)             -0.0659                  2.7                    !
 ! D7    D(5,3,6,7)             -0.0475                  2.0                    !
 ! D8    D(5,3,6,8)              0.0659                  2.7                    !
 ! D9    D(5,3,6,9)             -0.161                   6.7                    !
 --------------------------------------------------------------------------------
                           ----------------------------
                           ! Normal Mode     7        !
 --------------------------                            --------------------------
 ! Name  Definition              Value          Relative Weight (%)             !
 --------------------------------------------------------------------------------
 ! R1    R(1,2)                 -0.0458                  2.3                    !
 ! R2    R(2,3)                 -0.2893                 14.6                    !
 ! R3    R(3,4)                  0.0043                  0.2                    !
 ! R4    R(3,5)                  0.0043                  0.2                    !
 ! R5    R(3,6)                  0.4786                 24.1                    !
 ! R6    R(6,7)                 -0.0011                  0.1                    !
 ! R7    R(6,8)                  0.0043                  0.2                    !
 ! R8    R(6,9)                  0.0043                  0.2                    !
 ! A1    A(2,3,4)               -0.094                   4.7                    !
 ! A2    A(2,3,5)               -0.094                   4.7                    !
 ! A3    A(2,3,6)               -0.0058                  0.3                    !
 ! A4    A(4,3,5)               -0.0108                  0.5                    !
 ! A5    A(4,3,6)                0.0984                  5.0                    !
 ! A6    A(5,3,6)                0.0984                  5.0                    !
 ! A7    A(3,6,7)                0.1005                  5.1                    !
 ! A8    A(3,6,8)               -0.0478                  2.4                    !
 ! A9    A(3,6,9)               -0.0478                  2.4                    !
 ! A10   A(7,6,8)                0.0136                  0.7                    !
 ! A11   A(7,6,9)                0.0136                  0.7                    !
 ! A12   A(8,6,9)               -0.0313                  1.6                    !
 ! A13   L(1,2,3,8,-1)           0.0408                  2.1                    !
 ! A14   L(1,2,3,8,-2)           0.0242                  1.2                    !
 ! D1    D(2,3,6,7)              0.0                     0.0                    !
 ! D2    D(2,3,6,8)              0.0517                  2.6                    !
 ! D3    D(2,3,6,9)             -0.0517                  2.6                    !
 ! D4    D(4,3,6,7)              0.0544                  2.7                    !
 ! D5    D(4,3,6,8)              0.1062                  5.4                    !
 ! D6    D(4,3,6,9)              0.0027                  0.1                    !
 ! D7    D(5,3,6,7)             -0.0545                  2.7                    !
 ! D8    D(5,3,6,8)             -0.0027                  0.1                    !
 ! D9    D(5,3,6,9)             -0.1062                  5.4                    !
 --------------------------------------------------------------------------------
                           ----------------------------
                           ! Normal Mode     8        !
 --------------------------                            --------------------------
 ! Name  Definition              Value          Relative Weight (%)             !
 --------------------------------------------------------------------------------
 ! R1    R(1,2)                  0.0137                  0.4                    !
 ! R2    R(2,3)                  0.0695                  1.9                    !
 ! R3    R(3,4)                 -0.0022                  0.1                    !
 ! R4    R(3,5)                 -0.0022                  0.1                    !
 ! R5    R(3,6)                  0.2064                  5.6                    !
 ! R6    R(6,7)                  0.0107                  0.3                    !
 ! R7    R(6,8)                 -0.002                   0.1                    !
 ! R8    R(6,9)                 -0.002                   0.1                    !
 ! A1    A(2,3,4)                0.1478                  4.0                    !
 ! A2    A(2,3,5)                0.1479                  4.0                    !
 ! A3    A(2,3,6)               -0.178                   4.8                    !
 ! A4    A(4,3,5)                0.0554                  1.5                    !
 ! A5    A(4,3,6)               -0.0759                  2.1                    !
 ! A6    A(5,3,6)               -0.0759                  2.1                    !
 ! A7    A(3,6,7)               -0.427                  11.6                    !
 ! A8    A(3,6,8)                0.2173                  5.9                    !
 ! A9    A(3,6,9)                0.2173                  5.9                    !
 ! A10   A(7,6,8)               -0.0699                  1.9                    !
 ! A11   A(7,6,9)               -0.07                    1.9                    !
 ! A12   A(8,6,9)                0.1275                  3.5                    !
 ! A13   L(1,2,3,8,-1)           0.1144                  3.1                    !
 ! A14   L(1,2,3,8,-2)           0.0653                  1.8                    !
 ! D1    D(2,3,6,7)             -0.0001                  0.0                    !
 ! D2    D(2,3,6,8)             -0.226                   6.1                    !
 ! D3    D(2,3,6,9)              0.2259                  6.1                    !
 ! D4    D(4,3,6,7)             -0.0129                  0.3                    !
 ! D5    D(4,3,6,8)             -0.2388                  6.5                    !
 ! D6    D(4,3,6,9)              0.2131                  5.8                    !
 ! D7    D(5,3,6,7)              0.013                   0.4                    !
 ! D8    D(5,3,6,8)             -0.2129                  5.8                    !
 ! D9    D(5,3,6,9)              0.239                   6.5                    !
 --------------------------------------------------------------------------------
                           ----------------------------
                           ! Normal Mode     9        !
 --------------------------                            --------------------------
 ! Name  Definition              Value          Relative Weight (%)             !
 --------------------------------------------------------------------------------
 ! R1    R(1,2)                  0.0                     0.0                    !
 ! R2    R(2,3)                  0.0                     0.0                    !
 ! R3    R(3,4)                 -0.0078                  0.2                    !
 ! R4    R(3,5)                  0.0078                  0.2                    !
 ! R5    R(3,6)                  0.0                     0.0                    !
 ! R6    R(6,7)                  0.0                     0.0                    !
[...]
      5  -0.575928D+00  0.763327D+00 -0.138075D+00 -0.138152D+00  0.680579D+00
      6  -0.358493D-04  0.500336D-04 -0.439549D+00  0.439557D+00  0.138076D-03
      7   0.245966D+00 -0.652495D-01 -0.127005D+00 -0.126983D+00  0.201324D+00
      8   0.240399D+00 -0.381693D+00 -0.124138D+00 -0.124102D+00 -0.440180D+00
      9   0.215071D-04  0.288351D+00  0.294535D+00 -0.294559D+00 -0.497406D-04
     10   0.000000D+00  0.000000D+00  0.000000D+00  0.000000D+00  0.000000D+00
     11   0.000000D+00  0.000000D+00  0.000000D+00  0.000000D+00  0.000000D+00
     12   0.000000D+00  0.000000D+00  0.000000D+00  0.000000D+00  0.000000D+00
                16            17            18            19            20 
      1   0.122349D+00  0.122259D+00 -0.104734D+00 -0.104885D+00  0.546656D-01
      2   0.119587D+00  0.119485D+00  0.229229D+00  0.229088D+00  0.388400D+00
      3  -0.298363D+00  0.298442D+00 -0.413249D+00  0.413289D+00  0.283981D+00
      4  -0.500055D+00 -0.499922D+00  0.555654D+00  0.555854D+00 -0.109424D+00
      5   0.143480D+00  0.143631D+00 -0.110554D+00 -0.110377D+00 -0.776898D+00
      6   0.448771D+00 -0.448883D+00  0.543925D+00 -0.543775D+00 -0.143524D-03
      7   0.377706D+00  0.377664D+00 -0.450920D+00 -0.450969D+00  0.547582D-01
      8  -0.263068D+00 -0.263115D+00 -0.118675D+00 -0.118711D+00  0.388497D+00
      9  -0.150407D+00  0.150441D+00 -0.130676D+00  0.130486D+00 -0.283838D+00
     10   0.000000D+00  0.000000D+00  0.000000D+00  0.000000D+00  0.000000D+00
     11   0.000000D+00  0.000000D+00  0.000000D+00  0.000000D+00  0.000000D+00
     12   0.000000D+00  0.000000D+00  0.000000D+00  0.000000D+00  0.000000D+00
                21            22            23            24            25 
      1  -0.158730D+00 -0.893465D-01 -0.128770D-04 -0.128770D-04 -0.128770D-04
      2   0.385405D+00  0.217055D+00 -0.218315D-04 -0.218315D-04 -0.218315D-04
      3  -0.184603D+00  0.529982D+00  0.391294D+00  0.391294D+00  0.391294D+00
      4   0.280329D+00  0.159127D+00 -0.362686D-05 -0.818013D-01  0.818617D-01
      5  -0.692107D+00 -0.390873D+00  0.618300D-05 -0.799357D-01  0.800232D-01
      6   0.330976D+00 -0.949700D+00 -0.411684D+00 -0.600883D+00 -0.600835D+00
      7  -0.121404D+00 -0.698321D-01  0.104902D-03  0.403566D+00 -0.403684D+00
      8   0.306220D+00  0.176068D+00  0.114200D-03  0.394421D+00 -0.394559D+00
      9  -0.147540D+00  0.422891D+00 -0.493950D+00  0.467570D+00  0.467320D+00
     10  -0.194600D-03  0.519362D-04 -0.883985D-04 -0.321752D+00  0.321835D+00
     11   0.481600D-03 -0.224950D-02 -0.985513D-04 -0.314464D+00  0.314558D+00
     12   0.116626D-02 -0.317343D-02  0.514340D+00 -0.257981D+00 -0.257779D+00
                26            27            28            29            30 
      1  -0.315730D+00 -0.315730D+00 -0.315730D+00  0.315757D+00  0.315757D+00
      2  -0.308579D+00 -0.308579D+00 -0.308579D+00  0.308617D+00  0.308617D+00
      3  -0.266201D+00 -0.266201D+00 -0.266201D+00 -0.266145D+00 -0.266145D+00
      4   0.394600D+00  0.312802D+00  0.476465D+00 -0.394661D+00 -0.476459D+00
      5   0.385658D+00  0.305716D+00  0.465675D+00 -0.385740D+00 -0.465682D+00
      6   0.456313D+00  0.267114D+00  0.267162D+00  0.456231D+00  0.267032D+00
      7  -0.787806D-01  0.324680D+00 -0.482570D+00  0.789930D-01  0.482454D+00
      8  -0.769810D-01  0.317326D+00 -0.471654D+00  0.772219D-01  0.471529D+00
      9  -0.704452D+00  0.257068D+00  0.256819D+00 -0.704426D+00  0.257094D+00
     10  -0.883985D-04 -0.321752D+00  0.321835D+00 -0.883985D-04 -0.321752D+00
     11  -0.985513D-04 -0.314464D+00  0.314558D+00 -0.985513D-04 -0.314464D+00
     12   0.514340D+00 -0.257981D+00 -0.257779D+00  0.514340D+00 -0.257981D+00
                31 
      1   0.315757D+00
      2   0.308617D+00
      3  -0.266145D+00
      4  -0.312796D+00
      5  -0.305723D+00
      6   0.267080D+00
      7  -0.324796D+00
      8  -0.317451D+00
      9   0.256844D+00
     10   0.321835D+00
     11   0.314558D+00
     12  -0.257779D+00
 Iteration  1 RMS(Cart)=  0.00018572 RMS(Int)=  0.00000004
 Iteration  2 RMS(Cart)=  0.00000003 RMS(Int)=  0.00000002
 Variable       Old X    -DE/DX   Delta X   Delta X   Delta X     New X
                                 (Linear)    (Quad)   (Total)
    R1        2.19364  -0.00004   0.00000  -0.00004  -0.00004   2.19361
    R2        2.77054   0.00008   0.00000   0.00018   0.00018   2.77072
    R3        2.07134  -0.00003   0.00000  -0.00013  -0.00013   2.07121
    R4        2.07126  -0.00001   0.00000  -0.00005  -0.00005   2.07121
    R5        2.90753   0.00016   0.00000   0.00069   0.00069   2.90822
    R6        2.06597  -0.00002   0.00000  -0.00007  -0.00007   2.06590
    R7        2.06509  -0.00001   0.00000  -0.00005  -0.00005   2.06504
    R8        2.06507  -0.00001   0.00000  -0.00003  -0.00003   2.06504
    A1        1.88658   0.00003   0.00000   0.00026   0.00026   1.88684
    A2        1.88660   0.00002   0.00000   0.00025   0.00025   1.88684
    A3        1.96727  -0.00001   0.00000  -0.00009  -0.00009   1.96718
    A4        1.86130   0.00002   0.00000   0.00021   0.00021   1.86151
    A5        1.92915  -0.00003   0.00000  -0.00032  -0.00032   1.92883
    A6        1.92910  -0.00003   0.00000  -0.00027  -0.00027   1.92883
    A7        1.91579  -0.00002   0.00000  -0.00026  -0.00026   1.91552
    A8        1.93695  -0.00000   0.00000  -0.00006  -0.00006   1.93689
    A9        1.93697  -0.00000   0.00000  -0.00009  -0.00009   1.93689
   A10        1.89212   0.00001   0.00000   0.00017   0.00017   1.89229
   A11        1.89215   0.00001   0.00000   0.00014   0.00014   1.89229
   A12        1.88863   0.00000   0.00000   0.00012   0.00012   1.88876
   A13        3.12951   0.00001   0.00000   0.00009   0.00009   3.12959
   A14        3.13489  -0.00001   0.00000  -0.00012  -0.00012   3.13476
    D1       -3.14140  -0.00000   0.00000  -0.00019  -0.00019  -3.14159
    D2       -1.05022  -0.00000   0.00000  -0.00019  -0.00019  -1.05041
    D3        1.05055   0.00000   0.00000  -0.00014  -0.00014   1.05041
    D4        1.02845  -0.00001   0.00000  -0.00024  -0.00024   1.02821
    D5        3.11963  -0.00001   0.00000  -0.00024  -0.00024   3.11940
    D6       -1.06279  -0.00000   0.00000  -0.00018  -0.00018  -1.06297
    D7       -1.02808   0.00000   0.00000  -0.00014  -0.00014  -1.02821
    D8        1.06311   0.00000   0.00000  -0.00013  -0.00013   1.06297
    D9       -3.11931   0.00001   0.00000  -0.00008  -0.00008  -3.11940
         Item               Value     Threshold  Converged?
 Maximum Force            0.000156     0.000450     YES
 RMS     Force            0.000036     0.000300     YES
 Maximum Displacement     0.000343     0.001800     YES
 RMS     Displacement     0.000186     0.001200     YES
 Predicted change in Energy=-9.057558D-08
 Optimization completed.
    -- Stationary point found.
                           ----------------------------
                           !   Optimized Parameters   !
                           ! (Angstroms and Degrees)  !
 --------------------------                            --------------------------
 ! Name  Definition              Value          Derivative Info.                !
 --------------------------------------------------------------------------------
 ! R1    R(1,2)                  1.1608         -DE/DX =    0.0                 !
 ! R2    R(2,3)                  1.4661         -DE/DX =    0.0001              !
 ! R3    R(3,4)                  1.0961         -DE/DX =    0.0                 !
 ! R4    R(3,5)                  1.0961         -DE/DX =    0.0                 !
 ! R5    R(3,6)                  1.5386         -DE/DX =    0.0002              !
 ! R6    R(6,7)                  1.0933         -DE/DX =    0.0                 !
 ! R7    R(6,8)                  1.0928         -DE/DX =    0.0                 !
 ! R8    R(6,9)                  1.0928         -DE/DX =    0.0                 !
 ! A1    A(2,3,4)              108.0931         -DE/DX =    0.0                 !
 ! A2    A(2,3,5)              108.0941         -DE/DX =    0.0                 !
 ! A3    A(2,3,6)              112.7165         -DE/DX =    0.0                 !
 ! A4    A(4,3,5)              106.6445         -DE/DX =    0.0                 !
 ! A5    A(4,3,6)              110.5323         -DE/DX =    0.0                 !
 ! A6    A(5,3,6)              110.5295         -DE/DX =    0.0                 !
 ! A7    A(3,6,7)              109.7664         -DE/DX =    0.0                 !
 ! A8    A(3,6,8)              110.9792         -DE/DX =    0.0                 !
 ! A9    A(3,6,9)              110.9804         -DE/DX =    0.0                 !
 ! A10   A(7,6,8)              108.4103         -DE/DX =    0.0                 !
 ! A11   A(7,6,9)              108.4123         -DE/DX =    0.0                 !
 ! A12   A(8,6,9)              108.2108         -DE/DX =    0.0                 !
 ! A13   L(1,2,3,8,-1)         179.3075         -DE/DX =    0.0                 !
 ! A14   L(1,2,3,8,-2)         179.6157         -DE/DX =    0.0                 !
 ! D1    D(2,3,6,7)           -179.9889         -DE/DX =    0.0                 !
 ! D2    D(2,3,6,8)            -60.173          -DE/DX =    0.0                 !
 ! D3    D(2,3,6,9)             60.192          -DE/DX =    0.0                 !
 ! D4    D(4,3,6,7)             58.9259         -DE/DX =    0.0                 !
 ! D5    D(4,3,6,8)            178.7418         -DE/DX =    0.0                 !
 ! D6    D(4,3,6,9)            -60.8932         -DE/DX =    0.0                 !
 ! D7    D(5,3,6,7)            -58.9044         -DE/DX =    0.0                 !
 ! D8    D(5,3,6,8)             60.9115         -DE/DX =    0.0                 !
 ! D9    D(5,3,6,9)           -178.7235         -DE/DX =    0.0                 !
 --------------------------------------------------------------------------------
 GradGradGradGradGradGradGradGradGradGradGradGradGradGradGradGradGradGrad

 Leave Link  103 at Sat Aug 10 16:33:27 2019, MaxMem=  4294967296 cpu:               8.2 elap:               0.9

 ----------------------------------------------------------------------

 Electric dipole moment (input orientation):
 (Debye = 10**-18 statcoulomb cm , SI units = C m)
                  (au)            (Debye)         (10**-30 SI)
   Tot        0.154210D+01      0.391964D+01      0.130745D+02
   x          0.146046D+01      0.371212D+01      0.123823D+02
   y          0.495113D+00      0.125845D+01      0.419774D+01
   z          0.000000D+00      0.000000D+00      0.000000D+00

 Dipole polarizability, Alpha (input orientation).
 (esu units = cm**3 , SI units = C**2 m**2 J**-1)
 Alpha(0;0):
               (au)            (10**-24 esu)      (10**-40 SI)
   iso        0.340323D+02      0.504307D+01      0.561117D+01
   aniso      0.181233D+02      0.268559D+01      0.298812D+01
   xx         0.449861D+02      0.666625D+01      0.741721D+01
   yx         0.415891D+01      0.616286D+00      0.685711D+00
   yy         0.300382D+02      0.445121D+01      0.495264D+01
   zx        -0.419111D-03     -0.621059D-04     -0.691021D-04
   zy        -0.594535D-03     -0.881010D-04     -0.980256D-04
   zz         0.270726D+02      0.401175D+01      0.446367D+01

 ----------------------------------------------------------------------

 Dipole orientation:
     7         -0.19023957          0.56099923         -3.69490853
     6         -0.23499371          0.69350352         -1.50572777
     6         -0.28013626          0.82623156          1.26126726
     1          0.94368478          2.39011308          1.85032125
     1         -2.20273266          1.32315734          1.85017795
     6          0.56165322         -1.65668228          2.51834650
     1          0.49358023         -1.45739480          4.57355190
     1         -0.67528976         -3.21787847          1.97314838
     1          2.49329342         -2.14331596          1.97384010

 Electric dipole moment (dipole orientation):
 (Debye = 10**-18 statcoulomb cm , SI units = C m)
                  (au)            (Debye)         (10**-30 SI)
   Tot        0.154210D+01      0.391964D+01      0.130745D+02
   x          0.000000D+00      0.000000D+00      0.000000D+00
   y          0.000000D+00      0.000000D+00      0.000000D+00
   z          0.154210D+01      0.391964D+01      0.130745D+02

 Dipole polarizability, Alpha (dipole orientation).
 (esu units = cm**3 , SI units = C**2 m**2 J**-1)
 Alpha(0;0):
               (au)            (10**-24 esu)      (10**-40 SI)
   iso        0.340323D+02      0.504307D+01      0.561117D+01
   aniso      0.181233D+02      0.268559D+01      0.298812D+01
   xx         0.272762D+02      0.404191D+01      0.449724D+01
   yx        -0.600896D+00     -0.890436D-01     -0.990743D-01
   yy         0.288464D+02      0.427459D+01      0.475612D+01
   zx         0.399863D+00      0.592536D-01      0.659285D-01
   zy        -0.117760D+01     -0.174502D+00     -0.194160D+00
   zz         0.459744D+02      0.681270D+01      0.758016D+01

 ----------------------------------------------------------------------

 Test job not archived.
 1\1\NSC-N1849\Freq\RB3LYP\6-31G(d,p)\C3H5N1\X_KJEJO\10-Aug-2019\0\\# f
 req(hpmodes,intmodes) iop(1/33=3) b3lyp/6-31g(d,p) geom=connectivity i
 op(7/75=-1)\\name\\0,1\N,-1.95239,-0.330886,0.000025\C,-0.879019,0.111
 146,-0.000057\C,0.483873,0.651517,0.000018\H,0.594207,1.296942,-0.8790
 16\H,0.594179,1.296782,0.879122\C,1.559303,-0.448816,-0.000008\H,2.553
 513,0.005903,0.00025\H,1.4698,-1.083404,0.885146\H,1.470088,-1.083107,
 -0.885393\\Version=ES64L-G16RevB.01\State=1-A\HF=-172.0755934\RMSD=4.0
 56e-09\RMSF=6.292e-05\ZeroPoint=0.0745165\Thermal=0.0791907\Dipole=1.4
 604618,0.4951132,0.0000018\DipoleDeriv=-0.3162931,0.0286451,-0.0000389
 ,-0.0079695,-0.2905499,-0.0000201,-0.0000231,-0.0000136,-0.3141692,0.1
 430878,0.0506119,0.0000277,0.0894223,0.0373762,0.0000219,0.0000639,0.0
 000308,0.0656507,0.1161698,-0.0193684,0.0000042,0.0029147,0.1569578,-0
 .000029,-0.0000492,-0.0000324,0.1900475,-0.0087357,-0.0019316,-0.00612
 76,0.0006028,0.0129189,0.0637293,0.0047418,0.0841861,-0.0078268,-0.008
 7482,-0.0019393,0.0061321,0.0006106,0.0129594,-0.0637081,-0.0047298,-0
 .0841647,-0.0078386,0.1094622,-0.0182533,0.0000048,-0.1030039,0.079048
 5,0.0000135,-0.0000115,0.000009,0.096471,-0.1360375,-0.0468622,-0.0000
 319,-0.0479357,0.0122036,-0.0000273,-0.0000383,-0.0000238,0.0760683,0.
 0505463,0.0045273,0.0309255,0.032663,-0.0104832,0.072602,0.0018801,0.0
 87453,-0.0491704,0.0505483,0.0045705,-0.0308958,0.0326957,-0.0104314,-
 0.0725821,-0.001834,-0.0874443,-0.0492324\Polar=44.9861002,4.1589051,3
 0.0382497,-0.0004191,-0.0005945,27.0726201\Quadrupole=-3.4464728,1.741
 0689,1.7054039,-0.9891845,0.0001483,0.0000257\PG=C01 [X(C3H5N1)]\NImag
 =0\\1.08815518,0.43985740,0.19865923,-0.00007536,-0.00003092,0.0185520
 1,-1.08612361,-0.43146367,0.00007919,1.37235189,-0.42961130,-0.2137185
 4,0.00003260,0.51480269,0.32166937,0.00007017,0.00002903,-0.03805712,-
 0.00006443,-0.00002797,0.10804404,-0.00196038,-0.00812257,-0.00000389,
 -0.22985531,-0.06701895,-0.00000130,0.46984140,-0.01006441,0.01421754,
 -0.00000177,-0.06742631,-0.09918644,-0.00000135,0.03587927,0.50758050,
 0.00000508,0.00000168,0.01936506,-0.00001272,-0.00000519,-0.07495047,0
 .00000843,0.00003873,0.56945712,-0.00152432,0.00141827,-0.00382582,-0.
 00958767,-0.02176006,0.02901490,-0.04852788,-0.01756563,0.02204615,0.0
 5851406,0.00063502,0.00158569,-0.00089083,-0.00690114,-0.01049114,0.00
 995698,-0.01622697,-0.13369664,0.12276126,0.01785051,0.14602421,-0.002
 16367,-0.00014717,-0.00025507,0.00390898,-0.00139191,0.00250655,0.0210
 2180,0.12263248,-0.21939753,-0.02459533,-0.13448246,0.23428770,-0.0015
 2236,0.00141849,0.00382588,-0.00958868,-0.02175697,-0.02901852,-0.0485
 1627,-0.01756443,-0.02205131,0.00042283,0.00290244,0.00308930,0.058505
 63,0.00063540,0.00158588,0.00089116,-0.00689977,-0.01048970,-0.0099584
 6,-0.01622521,-0.13368216,-0.12279276,0.00290193,0.01207273,0.01518667
 ,0.01784545,0.14600593,0.00216369,0.00014763,-0.00025518,-0.00390880,0
 .00139039,0.00250537,-0.02102644,-0.12266536,-0.21948621,-0.00308735,-
 0.01518015,-0.02099367,0.02459814,0.13451232,0.23437867,0.00354820,-0.
 00180702,0.00000007,-0.03861796,0.01980566,-0.00000065,-0.12180038,0.0
 5607112,0.00000438,0.00247230,-0.00077773,-0.00077251,0.00246817,-0.00
 077478,0.00077212,0.52243887,-0.00325635,-0.00442157,0.00000011,-0.003
 18769,0.01589475,0.00000131,0.05003838,-0.13569602,-0.00000336,0.01485
 659,-0.01468445,-0.00122459,0.01485522,-0.01468195,0.00122275,0.063027
 62,0.52560878,-0.00000013,-0.00000033,0.00052725,-0.00000317,0.0000022
 5,-0.00108186,0.00000134,-0.00000310,-0.07827989,-0.02014648,0.0189455
 5,0.00177783,0.02015067,-0.01894944,0.00177646,0.00000285,0.00001713,0
 .58401870,0.00002448,-0.00046937,-0.00000004,-0.00284001,0.00403299,0.
 00000001,-0.01988840,-0.00921290,-0.00000398,0.00075353,-0.00036091,-0
 .00043850,0.00075376,-0.00036134,0.00043855,-0.26824483,-0.10370414,-0
 .00005726,0.29147774,0.00069307,0.00150636,-0.00000016,0.00396824,-0.0
 0423778,0.00000024,0.02446986,0.00947097,0.00000510,-0.00079573,0.0011
 9194,0.00012817,-0.00079545,0.00119261,-0.00012783,-0.10624795,-0.0978
 8527,-0.00002775,0.11112610,0.10422373,0.00000021,0.00000019,0.0000710
 2,0.00000061,-0.00000035,0.00079531,0.00000166,0.00000018,-0.00105237,
 -0.00030653,-0.00025890,0.00003494,0.00030667,0.00025902,0.00003558,-0
 .00005824,-0.00002768,-0.04929970,0.00006194,0.00003021,0.04682480,-0.
 00029847,-0.00041575,0.00038592,0.00213087,0.00075326,-0.00130702,0.00
 035612,0.01494549,-0.02078402,-0.00331856,0.00382816,0.00020552,0.0007
 9521,-0.00094928,0.00025536,-0.05113885,-0.01633881,0.02162151,-0.0010
 2274,-0.01621333,0.02521458,0.05306902,0.00055560,0.00029273,-0.000145
 62,-0.00144633,0.00028008,-0.00001722,-0.00139962,-0.01450629,0.018905
 24,0.00389369,-0.00245609,-0.00065022,-0.00079925,0.00045325,0.0000507
 7,-0.01467142,-0.13710686,0.12530484,-0.00052728,-0.00773293,0.0105143
 0,0.01236819,0.14798523,-0.00019672,-0.00027637,0.00002598,0.00008690,
 0.00024441,0.00011918,-0.00053909,-0.00178898,0.00217129,0.00048572,-0
 .00074967,0.00130822,-0.00041496,0.00010158,0.00073059,0.01994789,0.12
 663527,-0.22966517,0.00007688,-0.00194976,0.00130082,-0.02252283,-0.13
 809515,0.24404145,-0.00029872,-0.00041578,-0.00038595,0.00213049,0.000
 75267,0.00130682,0.00035110,0.01493781,0.02078799,0.00079572,-0.000949
 38,-0.00025557,-0.00331829,0.00382760,-0.00020528,-0.05112551,-0.01629
 082,-0.02156933,-0.00101353,-0.01620480,-0.02522091,-0.00057259,0.0020
 2641,0.00307620,0.05305134,0.00055556,0.00029269,0.00014545,-0.0014460
 1,0.00027939,0.00001744,-0.00139419,-0.01450146,-0.01891069,-0.0007995
 6,0.00045374,-0.00005097,0.00389450,-0.00245659,0.00064947,-0.01462550
 ,-0.13702741,-0.12528915,-0.00052315,-0.00772964,-0.01051698,0.0020220
 7,0.01279089,0.01587868,0.01231628,0.14789840,0.00019675,0.00027626,0.
 00002606,-0.00008656,-0.00024424,0.00011901,0.00053748,0.00178916,0.00
 217301,0.00041473,-0.00010177,0.00073102,-0.00048587,0.00074992,0.0013
 0840,-0.01989591,-0.12662093,-0.22977364,-0.00007762,0.00194178,0.0012
 8959,-0.00306903,-0.01586693,-0.02003237,0.02246602,0.13807675,0.24415
 890\\-0.00003981,-0.00002092,0.00000500,0.00010940,0.00006441,-0.00000
 988,0.00009052,-0.00019676,0.00002306,-0.00002655,0.00002958,-0.000022
 96,-0.00002299,0.00001353,0.00000259,-0.00014367,0.00012972,-0.0000044
 7,0.00002489,-0.00000623,0.00000243,0.00000428,-0.00000813,0.00000848,
 0.00000393,-0.00000520,-0.00000425\\\@


 THE PROMISED LAND ALWAYS LIES ON THE OTHER SIDE OF A WILDERNESS.

                         -- HAVELOCK ELLIS
 Job cpu time:       0 days  0 hours  4 minutes  1.1 seconds.
 Elapsed time:       0 days  0 hours  0 minutes 21.0 seconds.
 File lengths (MBytes):  RWF=     11 Int=      0 D2E=      0 Chk=      8 Scr=      1
 Normal termination of Gaussian 16 at Sat Aug 10 16:33:28 2019.
