 Entering Gaussian System, Link 0=/software/sse/easybuild/prefix/software/Gaussian/16.B.01-avx2-nsc1-bdist/g16/g16.orig
 Input=freq-lm.wrap
 Output=freq-lm.log
 Initial command:
 /software/sse/easybuild/prefix/software/Gaussian/16.B.01-avx2-nsc1-bdist/g16/l1.exe "/scratch/local/Gau-6181.inp" -scrdir="/scratch/local/"
 Default is to use a total of  16 processors:
                               16 via shared-memory
                                1 via Linda
 Entering Link 1 = /software/sse/easybuild/prefix/software/Gaussian/16.B.01-avx2-nsc1-bdist/g16/l1.exe PID=      6187.
  
 Copyright (c) 1988-2017, Gaussian, Inc.  All Rights Reserved.
  
 This is part of the Gaussian(R) 16 program.  It is based on
 the Gaussian(R) 09 system (copyright 2009, Gaussian, Inc.),
 the Gaussian(R) 03 system (copyright 2003, Gaussian, Inc.),
 the Gaussian(R) 98 system (copyright 1998, Gaussian, Inc.),
 the Gaussian(R) 94 system (copyright 1995, Gaussian, Inc.),
 the Gaussian 92(TM) system (copyright 1992, Gaussian, Inc.),
 the Gaussian 90(TM) system (copyright 1990, Gaussian, Inc.),
 the Gaussian 88(TM) system (copyright 1988, Gaussian, Inc.),
 the Gaussian 86(TM) system (copyright 1986, Carnegie Mellon
 University), and the Gaussian 82(TM) system (copyright 1983,
 Carnegie Mellon University). Gaussian is a federally registered
 trademark of Gaussian, Inc.
  
 This software contains proprietary and confidential information,
 including trade secrets, belonging to Gaussian, Inc.
  
 This software is provided under written license and may be
 used, copied, transmitted, or stored only in accord with that
 written license.
  
 The following legend is applicable only to US Government
 contracts under FAR:
  
                    RESTRICTED RIGHTS LEGEND
  
 Use, reproduction and disclosure by the US Government is
 subject to restrictions as set forth in subparagraphs (a)
 and (c) of the Commercial Computer Software - Restricted
 Rights clause in FAR 52.227-19.
  
 Gaussian, Inc.
 340 Quinnipiac St., Bldg. 40, Wallingford CT 06492
  
  
 ---------------------------------------------------------------
 Warning -- This program may not be used in any manner that
 competes with the business of Gaussian, Inc. or will provide
 assistance to any competitor of Gaussian, Inc.  The licensee
 of this program is prohibited from giving any competitor of
 Gaussian, Inc. access to this program.  By using this program,
 the user acknowledges that Gaussian, Inc. is engaged in the
 business of creating and licensing software in the field of
 computational chemistry and represents and warrants to the
 licensee that it is not a competitor of Gaussian, Inc. and that
 it will not use this program in any manner prohibited above.
 ---------------------------------------------------------------
  

 Cite this work as:
 Gaussian 16, Revision B.01,
 M. J. Frisch, G. W. Trucks, H. B. Schlegel, G. E. Scuseria, 
 M. A. Robb, J. R. Cheeseman, G. Scalmani, V. Barone, 
 G. A. Petersson, H. Nakatsuji, X. Li, M. Caricato, A. V. Marenich, 
 J. Bloino, B. G. Janesko, R. Gomperts, B. Mennucci, H. P. Hratchian, 
 J. V. Ortiz, A. F. Izmaylov, J. L. Sonnenberg, D. Williams-Young, 
 F. Ding, F. Lipparini, F. Egidi, J. Goings, B. Peng, A. Petrone, 
 T. Henderson, D. Ranasinghe, V. G. Zakrzewski, J. Gao, N. Rega, 
 G. Zheng, W. Liang, M. Hada, M. Ehara, K. Toyota, R. Fukuda, 
 J. Hasegawa, M. Ishida, T. Nakajima, Y. Honda, O. Kitao, H. Nakai, 
 T. Vreven, K. Throssell, J. A. Montgomery, Jr., J. E. Peralta, 
 F. Ogliaro, M. J. Bearpark, J. J. Heyd, E. N. Brothers, K. N. Kudin, 
 V. N. Staroverov, T. A. Keith, R. Kobayashi, J. Normand, 
 K. Raghavachari, A. P. Rendell, J. C. Burant, S. S. Iyengar, 
 J. Tomasi, M. Cossi, J. M. Millam, M. Klene, C. Adamo, R. Cammi, 
 J. W. Ochterski, R. L. Martin, K. Morokuma, O. Farkas, 
 J. B. Foresman, and D. J. Fox, Gaussian, Inc., Wallingford CT, 2016.
 
 ******************************************
 Gaussian 16:  ES64L-G16RevB.01 20-Dec-2017
                10-Aug-2019 
 ******************************************
 %chk=freq.chk
 ----------------------------------------------------------------------
 # freq(intmodes) iop(1/33=3) b3lyp/6-31g(d,p) geom=connectivity iop(7/
 75=-1)
 ----------------------------------------------------------------------
 1/10=4,18=20,30=1,33=3,38=1,57=2/1,3;
 2/9=110,12=2,17=6,18=5,40=1/2;
 3/5=1,6=6,7=101,11=2,25=1,30=1,71=2,74=-5,140=1/1,2,3;
 4//1;
 5/5=2,38=5,98=1/2;
 8/6=4,10=90,11=11/1;
 11/6=1,8=1,9=11,15=111,16=1/1,2,10;
 10/6=1/2;
 6/7=2,8=2,9=2,10=2,28=1/1;
 7/8=21,10=1,25=1,75=-1/1,2,3,16;
 1/10=4,18=20,30=1,33=3/3;
 99//99;
 ONIOM results not found on unit 2.
 ----
 name
 ----
 TstMul:  ICh=     0
 TstMul:  Mul=     1
 TstMul:  ICh=     0
 TstMul:  Mul=     1
 Symbolic Z-matrix:
 Charge =  0 Multiplicity = 1
 C                     0.58635   0.02855   0.00001 
 H                     1.24462  -0.84469  -0.00003 
 H                     1.09118   1.00405   0.00003 
 N                    -0.67042  -0.15397  -0.00001 
 H                    -1.16091   0.74712   0.00001 
 
 RdStrC is calling ZToCFu for IStruc=1 NZ=     5.
                                ZToCFu                                
 ---------------------------------------------------------------------
 Center     Atomic      Atomic             Coordinates (Angstroms)
 Number     Number       Type             X           Y           Z
 ---------------------------------------------------------------------
      1          6           0        0.586346    0.028554    0.000005
      2          1           0        1.244615   -0.844690   -0.000025
      3          1           0        1.091184    1.004055    0.000025
      4          7           0       -0.670424   -0.153972   -0.000006
      5          1           0       -1.160912    0.747116    0.000013
 ---------------------------------------------------------------------
 Connectivity in DoCon:
 I=     1 IAn=  6 IBond, RBType=     2  1.00     3  1.00     4  2.00
 I=     2 IAn=  1 IBond, RBType=     1  1.00
 I=     3 IAn=  1 IBond, RBType=     1  1.00
 I=     4 IAn=  7 IBond, RBType=     1  2.00     5  1.00
 I=     5 IAn=  1 IBond, RBType=     4  1.00
 After GenITR:
 ITRead=  0  0  0  0  0
 MicOpt= -1 -1 -1 -1 -1
 List IsCon N=      5 M=      2:
 I=      1 Vals=      2      1 |      3      1 |      4      2 |
 I=      2 Vals=      1      1 |
 I=      3 Vals=      1      1 |
 I=      4 Vals=      1      2 |      5      1 |
 I=      5 Vals=      4      1 |
 Add atom      1 valence  3 ND=      2 dihedral       2      1      3      4
 Coordinate R1 contains atom 1 which is already in QM block.
 Coordinate R1 contains atom 2 which is already in QM block.
 Coordinate R2 contains atom 1 which is already in QM block.
 Coordinate R2 contains atom 3 which is already in QM block.
 Coordinate R3 contains atom 1 which is already in QM block.
 Coordinate R3 contains atom 4 which is already in QM block.
 Coordinate R4 contains atom 4 which is already in QM block.
 Coordinate R4 contains atom 5 which is already in QM block.
 Coordinate A1 contains atom 2 which is already in QM block.
 Coordinate A1 contains atom 1 which is already in QM block.
 Coordinate A1 contains atom 1 which is already in QM block.
 Coordinate A2 contains atom 2 which is already in QM block.
 Coordinate A2 contains atom 1 which is already in QM block.
 Coordinate A2 contains atom 1 which is already in QM block.
 Coordinate A3 contains atom 3 which is already in QM block.
 Coordinate A3 contains atom 1 which is already in QM block.
 Coordinate A3 contains atom 1 which is already in QM block.
 Coordinate A4 contains atom 1 which is already in QM block.
 Coordinate A4 contains atom 4 which is already in QM block.
 Coordinate A4 contains atom 4 which is already in QM block.
 Coordinate D1 contains atom 2 which is already in QM block.
 Coordinate D1 contains atom 1 which is already in QM block.
 Coordinate D1 contains atom 3 which is already in QM block.
 Coordinate D1 contains atom 4 which is already in QM block.
 Coordinate D2 contains atom 2 which is already in QM block.
 Coordinate D2 contains atom 1 which is already in QM block.
 Coordinate D2 contains atom 4 which is already in QM block.
 Coordinate D2 contains atom 5 which is already in QM block.
 Coordinate D3 contains atom 3 which is already in QM block.
 Coordinate D3 contains atom 1 which is already in QM block.
 Coordinate D3 contains atom 4 which is already in QM block.
 Coordinate D3 contains atom 5 which is already in QM block.
 Saved connectivity
 I=     1 IAn=  6 IBond, RBType=     2  1.00     3  1.00     4  2.00
 I=     2 IAn=  1 IBond, RBType=     1  1.00
 I=     3 IAn=  1 IBond, RBType=     1  1.00
 I=     4 IAn=  7 IBond, RBType=     1  2.00     5  1.00
 I=     5 IAn=  1 IBond, RBType=     4  1.00
 ITRead=  0  0  0  0  0
 MicOpt= -1 -1 -1 -1 -1
 NAtoms=      5 NQM=        5 NQMF=       0 NMMI=      0 NMMIF=      0
                NMic=       0 NMicF=      0.
 No MM parameters found.
 Leave Link  101 at Sat Aug 10 16:32:44 2019, MaxMem=  4294967296 cpu:               5.5 elap:               0.4

 GradGradGradGradGradGradGradGradGradGradGradGradGradGradGradGradGradGrad
 Berny optimization.
 GetPCM: File not found, return IValue=0.
 Optmz: redundant internal coordinate code flag= 1
 Initialization pass.
                           ----------------------------
                           !    Initial Parameters    !
                           ! (Angstroms and Degrees)  !
 --------------------------                            --------------------------
 ! Name  Definition              Value          Derivative Info.                !
 --------------------------------------------------------------------------------
 ! R1    R(1,2)                  1.0936         calculate D2E/DX2 analytically  !
 ! R2    R(1,3)                  1.0984         calculate D2E/DX2 analytically  !
 ! R3    R(1,4)                  1.27           calculate D2E/DX2 analytically  !
 ! R4    R(4,5)                  1.0259         calculate D2E/DX2 analytically  !
 ! A1    A(2,1,3)              115.628          calculate D2E/DX2 analytically  !
 ! A2    A(2,1,4)              118.7462         calculate D2E/DX2 analytically  !
 ! A3    A(3,1,4)              125.6258         calculate D2E/DX2 analytically  !
 ! A4    A(1,4,5)              110.2972         calculate D2E/DX2 analytically  !
 ! D1    D(2,1,3,4)            179.9989         calculate D2E/DX2 analytically  !
 ! D2    D(2,1,4,5)           -179.9992         calculate D2E/DX2 analytically  !
 ! D3    D(3,1,4,5)             -0.0004         calculate D2E/DX2 analytically  !
 --------------------------------------------------------------------------------
 Maximum allowed force set to 1.00D+20.
 Trust Radius=3.00D-01 FncErr=1.00D-07 GrdErr=1.00D-07 EigMax=2.50D+02 EigMin=1.00D-04
 Number of steps in this run=      2 maximum allowed number of steps=      2.
 GradGradGradGradGradGradGradGradGradGradGradGradGradGradGradGradGradGrad

 Leave Link  103 at Sat Aug 10 16:32:44 2019, MaxMem=  4294967296 cpu:               0.2 elap:               0.0
                          Input orientation:                          
 ---------------------------------------------------------------------
 Center     Atomic      Atomic             Coordinates (Angstroms)
 Number     Number       Type             X           Y           Z
 ---------------------------------------------------------------------
      1          6           0        0.586346    0.028554    0.000005
      2          1           0        1.244615   -0.844690   -0.000025
      3          1           0        1.091184    1.004055    0.000025
      4          7           0       -0.670424   -0.153972   -0.000006
      5          1           0       -1.160912    0.747116    0.000013
 ---------------------------------------------------------------------
                    Distance matrix (angstroms):
                    1          2          3          4          5
     1  C    0.000000
     2  H    1.093560   0.000000
     3  H    1.098391   1.855101   0.000000
     4  N    1.269955   2.035796   2.108148   0.000000
     5  H    1.889244   2.884511   2.266706   1.025933   0.000000
 Stoichiometry    CH3N
 Framework group  C1[X(CH3N)]
 Deg. of freedom     9
 Full point group                 C1      NOp   1
 Largest Abelian subgroup         C1      NOp   1
 Largest concise Abelian subgroup C1      NOp   1
                         Standard orientation:                         
 ---------------------------------------------------------------------
 Center     Atomic      Atomic             Coordinates (Angstroms)
 Number     Number       Type             X           Y           Z
 ---------------------------------------------------------------------
      1          6           0        0.586346    0.028554    0.000005
      2          1           0        1.244615   -0.844690   -0.000025
      3          1           0        1.091184    1.004055    0.000025
      4          7           0       -0.670424   -0.153972   -0.000006
      5          1           0       -1.160912    0.747116    0.000013
 ---------------------------------------------------------------------
 Rotational constants (GHZ):         197.3806222          34.7504028          29.5482093
 Standard basis: 6-31G(d,p) (6D, 7F)
 There are    45 symmetry adapted cartesian basis functions of A   symmetry.
 There are    45 symmetry adapted basis functions of A   symmetry.
    45 basis functions,    77 primitive gaussians,    45 cartesian basis functions
     8 alpha electrons        8 beta electrons
       nuclear repulsion energy        32.8650662121 Hartrees.
 NAtoms=    5 NActive=    5 NUniq=    5 SFac= 1.00D+00 NAtFMM=   60 NAOKFM=F Big=F
 Integral buffers will be    131072 words long.
 Raffenetti 2 integral format.
 Two-electron integral symmetry is turned on.
 One-electron integrals computed using PRISM.
 NBasis=    45 RedAO= T EigKep=  7.59D-03  NBF=    45
 NBsUse=    45 1.00D-06 EigRej= -1.00D+00 NBFU=    45
 ExpMin= 1.61D-01 ExpMax= 4.17D+03 ExpMxC= 6.27D+02 IAcc=3 IRadAn=         5 AccDes= 0.00D+00
 Harris functional with IExCor=  402 and IRadAn=       5 diagonalized for initial guess.
 HarFok:  IExCor=  402 AccDes= 0.00D+00 IRadAn=         5 IDoV= 1 UseB2=F ITyADJ=14
 ICtDFT=  3500011 ScaDFX=  1.000000  1.000000  1.000000  1.000000
 FoFCou: FMM=F IPFlag=           0 FMFlag=      100000 FMFlg1=           0
         NFxFlg=           0 DoJE=T BraDBF=F KetDBF=T FulRan=T
         wScrn=  0.000000 ICntrl=       500 IOpCl=  0 I1Cent=   200000004 NGrid=           0
         NMat0=    1 NMatS0=      1 NMatT0=    0 NMatD0=    1 NMtDS0=    0 NMtDT0=    0
 Petite list used in FoFCou.
 Keep R1 ints in memory in canonical form, NReq=14432243.
 Requested convergence on RMS density matrix=1.00D-08 within 128 cycles.
 Requested convergence on MAX density matrix=1.00D-06.
 Requested convergence on             energy=1.00D-06.
 No special actions if energy rises.
 Integral accuracy reduced to 1.0D-05 until final iterations.
 Initial convergence to 1.0D-05 achieved.  Increase integral accuracy.
 SCF Done:  E(RB3LYP) =  -94.6334595149     A.U. after   11 cycles
            NFock= 11  Conv=0.11D-08     -V/T= 2.0096
 DoSCS=F DFT=T ScalE2(SS,OS)=  1.000000  1.000000
 Range of M.O.s used for correlation:     1    45
 NBasis=    45 NAE=     8 NBE=     8 NFC=     0 NFV=     0
 NROrb=     45 NOA=     8 NOB=     8 NVA=    37 NVB=    37
 Symmetrizing basis deriv contribution to polar:
 IMax=3 JMax=2 DiffMx= 0.00D+00
 G2DrvN: will do     6 centers at a time, making    1 passes.
 Calling FoFCou, ICntrl=  3107 FMM=F I1Cent=   0 AccDes= 0.00D+00.
 End of G2Drv F.D. properties file   721 does not exist.
 End of G2Drv F.D. properties file   722 does not exist.
 End of G2Drv F.D. properties file   788 does not exist.
          IDoAtm=11111
          Differentiating once with respect to electric field.
                with respect to dipole field.
          Differentiating once with respect to nuclear coordinates.
 Keep R1 ints in memory in canonical form, NReq=14380707.
          There are    18 degrees of freedom in the 1st order CPHF.  IDoFFX=6 NUNeed=     3.
     15 vectors produced by pass  0 Test12= 1.64D-15 5.56D-09 XBig12= 2.42D+01 3.92D+00.
 AX will form    15 AO Fock derivatives at one time.
     15 vectors produced by pass  1 Test12= 1.64D-15 5.56D-09 XBig12= 4.36D+00 7.13D-01.
     15 vectors produced by pass  2 Test12= 1.64D-15 5.56D-09 XBig12= 2.94D-02 5.13D-02.
     15 vectors produced by pass  3 Test12= 1.64D-15 5.56D-09 XBig12= 4.69D-05 2.09D-03.
     15 vectors produced by pass  4 Test12= 1.64D-15 5.56D-09 XBig12= 2.36D-08 3.90D-05.
      4 vectors produced by pass  5 Test12= 1.64D-15 5.56D-09 XBig12= 9.78D-12 6.53D-07.
      2 vectors produced by pass  6 Test12= 1.64D-15 5.56D-09 XBig12= 4.33D-15 1.57D-08.
 InvSVY:  IOpt=1 It=  1 EMax= 6.66D-16
 Solved reduced A of dimension    81 with    15 vectors.
 Isotropic polarizability for W=    0.000000       16.88 Bohr**3.
 End of Minotr F.D. properties file   721 does not exist.
 End of Minotr F.D. properties file   722 does not exist.
 End of Minotr F.D. properties file   788 does not exist.

 **********************************************************************

            Population analysis using the SCF Density.

 **********************************************************************

 Orbital symmetries:
       Occupied  (A) (A) (A) (A) (A) (A) (A) (A)
       Virtual   (A) (A) (A) (A) (A) (A) (A) (A) (A) (A) (A) (A)
                 (A) (A) (A) (A) (A) (A) (A) (A) (A) (A) (A) (A)
                 (A) (A) (A) (A) (A) (A) (A) (A) (A) (A) (A) (A)
                 (A)
 The electronic state is 1-A.
 Alpha  occ. eigenvalues --  -14.33251 -10.23530  -0.90302  -0.62039  -0.50001
 Alpha  occ. eigenvalues --   -0.42587  -0.32992  -0.26751
 Alpha virt. eigenvalues --   -0.01052   0.09402   0.13174   0.18928   0.30459
 Alpha virt. eigenvalues --    0.53874   0.58550   0.62601   0.66448   0.72571
 Alpha virt. eigenvalues --    0.75946   0.80746   0.88546   0.90365   0.99401
 Alpha virt. eigenvalues --    1.24335   1.36919   1.43063   1.61027   1.70420
 Alpha virt. eigenvalues --    1.85534   1.96355   2.03764   2.22451   2.24222
 Alpha virt. eigenvalues --    2.37883   2.43262   2.55769   2.63877   2.67078
 Alpha virt. eigenvalues --    2.81973   2.90646   3.19830   3.41720   3.56541
 Alpha virt. eigenvalues --    3.82551   4.30732
          Condensed to atoms (all electrons):
               1          2          3          4          5
     1  C    4.742732   0.376562   0.362477   0.588779  -0.056696
     2  H    0.376562   0.619844  -0.069599  -0.050542   0.010071
     3  H    0.362477  -0.069599   0.680884  -0.043089  -0.022202
     4  N    0.588779  -0.050542  -0.043089   6.622511   0.307651
     5  H   -0.056696   0.010071  -0.022202   0.307651   0.527206
 Mulliken charges:
               1
     1  C   -0.013854
     2  H    0.113665
     3  H    0.091529
     4  N   -0.425310
     5  H    0.233970
 Sum of Mulliken charges =   0.00000
 Mulliken charges with hydrogens summed into heavy atoms:
               1
     1  C    0.191340
     4  N   -0.191340
 APT charges:
               1
     1  C    0.311010
     2  H   -0.017802
     3  H   -0.020961
     4  N   -0.412341
     5  H    0.140094
 Sum of APT charges =   0.00000
 APT charges with hydrogens summed into heavy atoms:
               1
     1  C    0.272247
     4  N   -0.272247
 Electronic spatial extent (au):  <R**2>=             69.6817
 Charge=              0.0000 electrons
 Dipole moment (field-independent basis, Debye):
    X=              1.1420    Y=              1.5776    Z=              0.0000  Tot=              1.9475
 Quadrupole moment (field-independent basis, Debye-Ang):
   XX=            -11.9547   YY=            -12.1035   ZZ=            -13.2419
   XY=             -2.0136   XZ=             -0.0001   YZ=              0.0000
 Traceless Quadrupole moment (field-independent basis, Debye-Ang):
   XX=              0.4786   YY=              0.3299   ZZ=             -0.8085
   XY=             -2.0136   XZ=             -0.0001   YZ=              0.0000
 Octapole moment (field-independent basis, Debye-Ang**2):
  XXX=             -0.4555  YYY=              1.5827  ZZZ=              0.0000  XYY=              0.3743
  XXY=              2.1162  XXZ=              0.0000  XZZ=             -0.3587  YZZ=              0.2850
  YYZ=              0.0000  XYZ=              0.0000
 Hexadecapole moment (field-independent basis, Debye-Ang**3):
 XXXX=            -53.4917 YYYY=            -21.8169 ZZZZ=            -12.1272 XXXY=             -3.7239
 XXXZ=             -0.0002 YYYX=             -2.2202 YYYZ=             -0.0001 ZZZX=             -0.0001
 ZZZY=             -0.0002 XXYY=            -11.6519 XXZZ=            -11.3811 YYZZ=             -6.0241
 XXYZ=             -0.0000 YYXZ=             -0.0001 ZZXY=             -0.4113
 N-N= 3.286506621211D+01 E-N=-2.857023479211D+02  KE= 9.373326675734D+01
  Exact polarizability:  25.272  -0.814  17.274   0.000   0.000   8.103
 Approx polarizability:  39.749   0.757  22.063   0.000   0.000  10.906
 Calling FoFJK, ICntrl=    100127 FMM=F ISym2X=0 I1Cent= 0 IOpClX= 0 NMat=1 NMatS=1 NMatT=0.
 Full mass-weighted force constant matrix:
 Low frequencies ---  -10.7372   -3.1388    0.0002    0.0010    0.0012    1.6917
 Low frequencies --- 1079.0705 1094.6423 1171.5940
 Diagonal vibrational polarizability:
        1.7694543       0.2416366       1.1960096
 Harmonic frequencies (cm**-1), IR intensities (KM/Mole), Raman scattering
 activities (A**4/AMU), depolarization ratios for plane and unpolarized
 incident light, reduced masses (AMU), force constants (mDyne/A),
 and normal coordinates:
                      1                      2                      3
                      A                      A                      A
 Frequencies --   1079.0705              1094.6423              1171.5940
 Red. masses --      1.0745                 1.3688                 1.0688
 Frc consts  --      0.7371                 0.9664                 0.8644
 IR Inten    --     36.5597                11.1605                48.2189
  Atom  AN      X      Y      Z        X      Y      Z        X      Y      Z
     1   6    -0.00  -0.07  -0.00    -0.00   0.00  -0.17    -0.00   0.00  -0.01
     2   1     0.43   0.26   0.00     0.00  -0.00   0.62     0.00  -0.00   0.53
     3   1    -0.51   0.18  -0.00    -0.00  -0.00   0.76    -0.00   0.00  -0.29
     4   7    -0.03   0.00  -0.00    -0.00  -0.00   0.05     0.00   0.00  -0.07
     5   1     0.57   0.34   0.00     0.00   0.00  -0.09    -0.00  -0.00   0.80
                      4                      5                      6
                      A                      A                      A
 Frequencies --   1379.4017              1507.9732              1732.8243
 Red. masses --      1.3966                 1.1931                 4.3193
 Frc consts  --      1.5657                 1.5985                 7.6414
 IR Inten    --     44.4225                 4.6767                24.0590
  Atom  AN      X      Y      Z        X      Y      Z        X      Y      Z
     1   6    -0.02   0.13   0.00     0.04  -0.00   0.00     0.43   0.04   0.00
     2   1    -0.38  -0.13  -0.00     0.61   0.40   0.00    -0.26  -0.48  -0.00
     3   1     0.41  -0.10  -0.00     0.62  -0.26  -0.00    -0.38   0.46   0.00
     4   7    -0.04  -0.12  -0.00    -0.11  -0.01  -0.00    -0.31  -0.04  -0.00
     5   1     0.71   0.33   0.00    -0.09   0.01  -0.00    -0.23   0.06   0.00
                      7                      8                      9
                      A                      A                      A
 Frequencies --   3027.9818              3130.8951              3426.7684
 Red. masses --      1.0618                 1.1088                 1.0758
 Frc consts  --      5.7361                 6.4040                 7.4429
 IR Inten    --     47.7826                41.6402                 5.3727
  Atom  AN      X      Y      Z        X      Y      Z        X      Y      Z
     1   6    -0.06  -0.04  -0.00     0.03  -0.09  -0.00    -0.01  -0.01  -0.00
     2   1     0.22  -0.33  -0.00    -0.55   0.74   0.00    -0.01   0.03   0.00
     3   1     0.40   0.82   0.00     0.17   0.33   0.00     0.02   0.05   0.00
     4   7     0.00   0.00   0.00    -0.00   0.00   0.00     0.04  -0.06  -0.00
     5   1     0.03  -0.03  -0.00     0.02  -0.04  -0.00    -0.50   0.86   0.00

 -------------------
 - Thermochemistry -
 -------------------
 Temperature   298.150 Kelvin.  Pressure   1.00000 Atm.
 Atom     1 has atomic number  6 and mass  12.00000
 Atom     2 has atomic number  1 and mass   1.00783
 Atom     3 has atomic number  1 and mass   1.00783
 Atom     4 has atomic number  7 and mass  14.00307
 Atom     5 has atomic number  1 and mass   1.00783
 Molecular mass:    29.02655 amu.
 Principal axes and moments of inertia in atomic units:
                           1         2         3
     Eigenvalues --     9.14346  51.93440  61.07785
           X            0.99787  -0.06529  -0.00000
           Y            0.06529   0.99787  -0.00003
           Z            0.00001   0.00003   1.00000
 This molecule is an asymmetric top.
 Rotational symmetry number  1.
 Rotational temperatures (Kelvin)      9.47278     1.66776     1.41809
 Rotational constants (GHZ):         197.38062    34.75040    29.54821
 Zero-point vibrational energy     104979.2 (Joules/Mol)
                                   25.09063 (Kcal/Mol)
 Vibrational temperatures:   1552.54  1574.95  1685.66  1984.65  2169.64
          (Kelvin)           2493.15  4356.59  4504.66  4930.36
 
 Zero-point correction=                           0.039984 (Hartree/Particle)
 Thermal correction to Energy=                    0.042903
 Thermal correction to Enthalpy=                  0.043847
 Thermal correction to Gibbs Free Energy=         0.018068
 Sum of electronic and zero-point Energies=            -94.593475
 Sum of electronic and thermal Energies=               -94.590556
 Sum of electronic and thermal Enthalpies=             -94.589612
 Sum of electronic and thermal Free Energies=          -94.615391
 
                     E (Thermal)             CV                S
                      KCal/Mol        Cal/Mol-Kelvin    Cal/Mol-Kelvin
 Total                   26.922              6.988             54.257
 Electronic               0.000              0.000              0.000
 Translational            0.889              2.981             36.031
 Rotational               0.889              2.981             18.012
 Vibrational             25.145              1.026              0.213
                       Q            Log10(Q)             Ln(Q)
 Total Bot       0.488921D-08         -8.310761        -19.136235
 Total V=0       0.120448D+11         10.080800         23.211899
 Vib (Bot)       0.412593D-18        -18.384478        -42.331826
 Vib (V=0)       0.101644D+01          0.007082          0.016308
 Electronic      0.100000D+01          0.000000          0.000000
 Translational   0.614677D+07          6.788647         15.631437
 Rotational      0.192784D+04          3.285070          7.564154
                           ----------------------------
                           ! Normal Mode     1        !
 --------------------------                            --------------------------
 ! Name  Definition              Value          Relative Weight (%)             !
 --------------------------------------------------------------------------------
 ! R1    R(1,2)                 -0.0053                  0.5                    !
 ! R2    R(1,3)                 -0.0074                  0.8                    !
 ! R3    R(1,4)                  0.0157                  1.6                    !
 ! R4    R(4,5)                  0.0071                  0.7                    !
 ! A1    A(2,1,3)                0.0076                  0.8                    !
 ! A2    A(2,1,4)                0.2967                 30.6                    !
 ! A3    A(3,1,4)               -0.3043                 31.4                    !
 ! A4    A(1,4,5)               -0.3257                 33.6                    !
 ! D1    D(2,1,3,4)              0.0                     0.0                    !
 ! D2    D(2,1,4,5)              0.0                     0.0                    !
 ! D3    D(3,1,4,5)              0.0                     0.0                    !
 --------------------------------------------------------------------------------
                           ----------------------------
                           ! Normal Mode     2        !
 --------------------------                            --------------------------
 ! Name  Definition              Value          Relative Weight (%)             !
 --------------------------------------------------------------------------------
 ! R1    R(1,2)                  0.0                     0.0                    !
 ! R2    R(1,3)                  0.0                     0.0                    !
 ! R3    R(1,4)                  0.0                     0.0                    !
 ! R4    R(4,5)                  0.0                     0.0                    !
 ! A1    A(2,1,3)                0.0                     0.0                    !
 ! A2    A(2,1,4)                0.0                     0.0                    !
 ! A3    A(3,1,4)                0.0                     0.0                    !
 ! A4    A(1,4,5)                0.0                     0.0                    !
 ! D1    D(2,1,3,4)              1.0767                 49.3                    !
 ! D2    D(2,1,4,5)             -0.3776                 17.3                    !
 ! D3    D(3,1,4,5)              0.7296                 33.4                    !
 --------------------------------------------------------------------------------
                           ----------------------------
                           ! Normal Mode     3        !
 --------------------------                            --------------------------
 ! Name  Definition              Value          Relative Weight (%)             !
 --------------------------------------------------------------------------------
 ! R1    R(1,2)                  0.0                     0.0                    !
 ! R2    R(1,3)                  0.0                     0.0                    !
 ! R3    R(1,4)                  0.0                     0.0                    !
 ! R4    R(4,5)                  0.0                     0.0                    !
 ! A1    A(2,1,3)                0.0                     0.0                    !
 ! A2    A(2,1,4)                0.0                     0.0                    !
 ! A3    A(3,1,4)                0.0                     0.0                    !
 ! A4    A(1,4,5)                0.0                     0.0                    !
 ! D1    D(2,1,3,4)              0.09                    5.9                    !
 ! D2    D(2,1,4,5)             -0.7646                 50.1                    !
 ! D3    D(3,1,4,5)             -0.6721                 44.0                    !
 --------------------------------------------------------------------------------
                           ----------------------------
                           ! Normal Mode     4        !
 --------------------------                            --------------------------
 ! Name  Definition              Value          Relative Weight (%)             !
 --------------------------------------------------------------------------------
 ! R1    R(1,2)                 -0.0085                  0.6                    !
 ! R2    R(1,3)                 -0.0034                  0.3                    !
 ! R3    R(1,4)                  0.0539                  4.0                    !
 ! R4    R(4,5)                  0.0378                  2.8                    !
 ! A1    A(2,1,3)               -0.019                   1.4                    !
 ! A2    A(2,1,4)               -0.3178                 23.9                    !
 ! A3    A(3,1,4)                0.3369                 25.3                    !
 ! A4    A(1,4,5)               -0.5536                 41.6                    !
 ! D1    D(2,1,3,4)              0.0                     0.0                    !
 ! D2    D(2,1,4,5)              0.0                     0.0                    !
 ! D3    D(3,1,4,5)              0.0                     0.0                    !
 --------------------------------------------------------------------------------
                           ----------------------------
                           ! Normal Mode     5        !
 --------------------------                            --------------------------
 ! Name  Definition              Value          Relative Weight (%)             !
 --------------------------------------------------------------------------------
 ! R1    R(1,2)                  0.0206                  1.4                    !
 ! R2    R(1,3)                  0.0326                  2.2                    !
 ! R3    R(1,4)                  0.1515                 10.1                    !
 ! R4    R(4,5)                  0.0095                  0.6                    !
 ! A1    A(2,1,3)               -0.6419                 42.6                    !
 ! A2    A(2,1,4)                0.3413                 22.6                    !
 ! A3    A(3,1,4)                0.3006                 19.9                    !
 ! A4    A(1,4,5)               -0.0093                  0.6                    !
 ! D1    D(2,1,3,4)              0.0                     0.0                    !
 ! D2    D(2,1,4,5)              0.0                     0.0                    !
 ! D3    D(3,1,4,5)              0.0                     0.0                    !
 --------------------------------------------------------------------------------
                           ----------------------------
                           ! Normal Mode     6        !
 --------------------------                            --------------------------
 ! Name  Definition              Value          Relative Weight (%)             !
 --------------------------------------------------------------------------------
 ! R1    R(1,2)                 -0.0005                  0.0                    !
 ! R2    R(1,3)                 -0.0013                  0.1                    !
 ! R3    R(1,4)                  0.7424                 29.0                    !
 ! R4    R(4,5)                  0.0511                  2.0                    !
 ! A1    A(2,1,3)                0.8612                 33.6                    !
 ! A2    A(2,1,4)               -0.408                  15.9                    !
 ! A3    A(3,1,4)               -0.4532                 17.7                    !
 ! A4    A(1,4,5)               -0.0454                  1.8                    !
 ! D1    D(2,1,3,4)              0.0                     0.0                    !
 ! D2    D(2,1,4,5)              0.0                     0.0                    !
 ! D3    D(3,1,4,5)              0.0                     0.0                    !
 --------------------------------------------------------------------------------
                           ----------------------------
                           ! Normal Mode     7        !
 --------------------------                            --------------------------
 ! Name  Definition              Value          Relative Weight (%)             !
 --------------------------------------------------------------------------------
 ! R1    R(1,2)                  0.3962                 25.3                    !
 ! R2    R(1,3)                  0.977                  62.4                    !
 ! R3    R(1,4)                 -0.0636                  4.1                    !
 ! R4    R(4,5)                 -0.0427                  2.7                    !
 ! A1    A(2,1,3)               -0.0269                  1.7                    !
 ! A2    A(2,1,4)                0.0381                  2.4                    !
 ! A3    A(3,1,4)               -0.0111                  0.7                    !
 ! A4    A(1,4,5)                0.0093                  0.6                    !
 ! D1    D(2,1,3,4)              0.0                     0.0                    !
 ! D2    D(2,1,4,5)              0.0                     0.0                    !
 ! D3    D(3,1,4,5)              0.0                     0.0                    !
 --------------------------------------------------------------------------------
                           ----------------------------
                           ! Normal Mode     8        !
 --------------------------                            --------------------------
 ! Name  Definition              Value          Relative Weight (%)             !
 --------------------------------------------------------------------------------
 ! R1    R(1,2)                 -1.0135                 59.2                    !
 ! R2    R(1,3)                  0.4371                 25.5                    !
 ! R3    R(1,4)                  0.0214                  1.2                    !
 ! R4    R(4,5)                 -0.0507                  3.0                    !
 ! A1    A(2,1,3)                0.0166                  1.0                    !
 ! A2    A(2,1,4)                0.0564                  3.3                    !
 ! A3    A(3,1,4)               -0.0729                  4.3                    !
 ! A4    A(1,4,5)                0.0426                  2.5                    !
 ! D1    D(2,1,3,4)              0.0                     0.0                    !
 ! D2    D(2,1,4,5)              0.0                     0.0                    !
 ! D3    D(3,1,4,5)              0.0                     0.0                    !
 --------------------------------------------------------------------------------
                           ----------------------------
                           ! Normal Mode     9        !
 --------------------------                            --------------------------
 ! Name  Definition              Value          Relative Weight (%)             !
 --------------------------------------------------------------------------------
 ! R1    R(1,2)                 -0.0306                  2.5                    !
 ! R2    R(1,3)                  0.0596                  4.8                    !
 ! R3    R(1,4)                 -0.0382                  3.1                    !
 ! R4    R(4,5)                  1.0668                 85.8                    !
 ! A1    A(2,1,3)               -0.005                   0.4                    !
 ! A2    A(2,1,4)               -0.0152                  1.2                    !
 ! A3    A(3,1,4)                0.0201                  1.6                    !
 ! A4    A(1,4,5)               -0.0079                  0.6                    !
 ! D1    D(2,1,3,4)              0.0                     0.0                    !
 ! D2    D(2,1,4,5)              0.0                     0.0                    !
 ! D3    D(3,1,4,5)              0.0                     0.0                    !
 --------------------------------------------------------------------------------
 Max01P=      7 Av01P=    5.22 Stan. Dev.=    1.48
 Max05P=      4 Av05P=    2.78 Stan. Dev.=    0.97
 Max10P=      4 Av10P=    2.67 Stan. Dev.=    1.00
 MaxNDP=     11 AvNDP=   11.00 Stan. Dev.=    0.00
 ***** Axes restored to original set *****
 -------------------------------------------------------------------
 Center     Atomic                   Forces (Hartrees/Bohr)
 Number     Number              X              Y              Z
 -------------------------------------------------------------------
      1        6           0.000114358   -0.000010861   -0.000001642
      2        1          -0.000055506    0.000015351    0.000000726
      3        1          -0.000014246    0.000015038    0.000000464
      4        7          -0.000043948   -0.000020325    0.000000159
      5        1          -0.000000658    0.000000796    0.000000292
 -------------------------------------------------------------------
 Cartesian Forces:  Max     0.000114358 RMS     0.000035861
 FormGI is forming the generalized inverse of G from B-inverse, IUseBI=4.

 GradGradGradGradGradGradGradGradGradGradGradGradGradGradGradGradGradGrad
 Berny optimization.
 GetPCM: File not found, return IValue=0.
 Optmz: redundant internal coordinate code flag= 1
 IB Matrix in FormBX:
              1            2            3            4            5
     1            1            1            1            4            2
     2            2            3            4            5            1
     3            0            0            0            0            3
     4            0            0            0            0            0
              6            7            8            9           10
     1            2            3            1            2            2
     2            1            1            4            1            1
     3            4            4            5            3            4
     4            0            0            0            4            5
             11
     1            3
     2            1
     3            4
     4            5
 B Matrix in FormBX:
                 1             2             3             4             5 
      1  -0.601951D+00 -0.459616D+00  0.989617D+00  0.478090D+00 -0.386413D+00
      2   0.798533D+00 -0.888118D+00  0.143726D+00 -0.878311D+00 -0.291286D+00
      3   0.274333D-04 -0.182084D-04  0.866172D-05 -0.185197D-04 -0.340421D-05
      4   0.601951D+00  0.459616D+00 -0.989617D+00 -0.478090D+00  0.814286D+00
      5  -0.798533D+00  0.888118D+00 -0.143726D+00  0.878311D+00  0.698546D-01
      6  -0.274333D-04  0.182084D-04 -0.866172D-05  0.185197D-04 -0.704631D-05
      7   0.000000D+00  0.000000D+00  0.000000D+00  0.000000D+00 -0.427873D+00
      8   0.000000D+00  0.000000D+00  0.000000D+00  0.000000D+00  0.221431D+00
      9   0.000000D+00  0.000000D+00  0.000000D+00  0.000000D+00  0.104505D-04
     10   0.000000D+00  0.000000D+00  0.000000D+00  0.000000D+00  0.000000D+00
     11   0.000000D+00  0.000000D+00  0.000000D+00  0.000000D+00  0.000000D+00
     12   0.000000D+00  0.000000D+00  0.000000D+00  0.000000D+00  0.000000D+00
                 6             7             8             9            10 
      1   0.386413D+00  0.427873D+00  0.598893D-01  0.584787D-05  0.187201D-05
      2   0.291286D+00 -0.221431D+00 -0.412363D+00 -0.140300D-04  0.203723D-04
      3   0.120624D-04 -0.115252D-05 -0.956278D-05  0.536703D+00 -0.551923D+00
      4  -0.326524D+00 -0.487762D+00  0.393144D+00 -0.300924D-05 -0.183456D-05
      5  -0.703649D+00  0.633795D+00  0.658963D+00  0.348879D-04 -0.251171D-04
      6  -0.270802D-04  0.790039D-05  0.178593D-04 -0.162570D+01  0.626376D+00
      7  -0.598893D-01  0.598893D-01 -0.453034D+00  0.000000D+00 -0.293753D-05
      8   0.412363D+00 -0.412363D+00 -0.246599D+00 -0.120043D-04 -0.842984D-05
      9   0.150178D-04 -0.674786D-05 -0.829655D-05  0.576363D+00  0.475497D+00
     10   0.000000D+00  0.000000D+00  0.000000D+00 -0.320104D-05  0.290008D-05
     11   0.000000D+00  0.000000D+00  0.000000D+00 -0.885360D-05  0.131746D-04
     12   0.000000D+00  0.000000D+00  0.000000D+00  0.512635D+00 -0.549950D+00
                11 
      1  -0.370103D-05
      2  -0.102365D-04
      3   0.592707D+00
      4   0.637831D-05
      5   0.190856D-04
      6  -0.104543D+01
      7  -0.557736D-05
      8  -0.220237D-04
      9   0.100267D+01
     10   0.290008D-05
     11   0.131746D-04
     12  -0.549950D+00
 IB Matrix in Red2BG:
              1            2            3            4            5
     1            1            1            1            4            2
     2            2            3            4            5            1
     3            0            0            0            0            3
     4            0            0            0            0            0
              6            7            8            9           10
     1            2            3            1            2            2
     2            1            1            4            1            1
     3            4            4            5            3            4
     4            0            0            0            4            5
             11
     1            3
     2            1
     3            4
     4            5
 B Matrix in Red2BG:
                 1             2             3             4             5 
      1  -0.601951D+00 -0.459616D+00  0.989617D+00  0.478090D+00 -0.386413D+00
      2   0.798533D+00 -0.888118D+00  0.143726D+00 -0.878311D+00 -0.291286D+00
      3   0.274333D-04 -0.182084D-04  0.866172D-05 -0.185197D-04 -0.340421D-05
      4   0.601951D+00  0.459616D+00 -0.989617D+00 -0.478090D+00  0.814286D+00
      5  -0.798533D+00  0.888118D+00 -0.143726D+00  0.878311D+00  0.698546D-01
      6  -0.274333D-04  0.182084D-04 -0.866172D-05  0.185197D-04 -0.704631D-05
      7   0.000000D+00  0.000000D+00  0.000000D+00  0.000000D+00 -0.427873D+00
      8   0.000000D+00  0.000000D+00  0.000000D+00  0.000000D+00  0.221431D+00
      9   0.000000D+00  0.000000D+00  0.000000D+00  0.000000D+00  0.104505D-04
     10   0.000000D+00  0.000000D+00  0.000000D+00  0.000000D+00  0.000000D+00
     11   0.000000D+00  0.000000D+00  0.000000D+00  0.000000D+00  0.000000D+00
     12   0.000000D+00  0.000000D+00  0.000000D+00  0.000000D+00  0.000000D+00
                 6             7             8             9            10 
      1   0.386413D+00  0.427873D+00  0.598893D-01  0.584787D-05  0.187201D-05
      2   0.291286D+00 -0.221431D+00 -0.412363D+00 -0.140300D-04  0.203723D-04
      3   0.120624D-04 -0.115252D-05 -0.956278D-05  0.536703D+00 -0.551923D+00
      4  -0.326524D+00 -0.487762D+00  0.393144D+00 -0.300924D-05 -0.183456D-05
      5  -0.703649D+00  0.633795D+00  0.658963D+00  0.348879D-04 -0.251171D-04
      6  -0.270802D-04  0.790039D-05  0.178593D-04 -0.162570D+01  0.626376D+00
      7  -0.598893D-01  0.598893D-01 -0.453034D+00  0.000000D+00 -0.293753D-05
      8   0.412363D+00 -0.412363D+00 -0.246599D+00 -0.120043D-04 -0.842984D-05
      9   0.150178D-04 -0.674786D-05 -0.829655D-05  0.576363D+00  0.475497D+00
     10   0.000000D+00  0.000000D+00  0.000000D+00 -0.320104D-05  0.290008D-05
     11   0.000000D+00  0.000000D+00  0.000000D+00 -0.885360D-05  0.131746D-04
     12   0.000000D+00  0.000000D+00  0.000000D+00  0.512635D+00 -0.549950D+00
                11 
      1  -0.370103D-05
      2  -0.102365D-04
      3   0.592707D+00
      4   0.637831D-05
      5   0.190856D-04
      6  -0.104543D+01
      7  -0.557736D-05
      8  -0.220237D-04
      9   0.100267D+01
     10   0.290008D-05
     11   0.131746D-04
     12  -0.549950D+00
 G Matrix: 
                 1             2             3             4             5 
      1   0.200000D+01 -0.432526D+00 -0.480931D+00  0.000000D+00 -0.434379D+00
      2  -0.432526D+00  0.200000D+01 -0.582490D+00  0.000000D+00 -0.436298D+00
      3  -0.480931D+00 -0.582490D+00  0.200000D+01 -0.346890D+00  0.815871D+00
      4   0.000000D+00  0.000000D+00 -0.346890D+00  0.200000D+01  0.000000D+00
      5  -0.434379D+00 -0.436298D+00  0.815871D+00  0.000000D+00  0.113421D+01
      6  -0.365336D+00  0.774999D+00 -0.424266D+00 -0.390816D+00 -0.549199D+00
      7   0.799715D+00 -0.338701D+00 -0.391605D+00  0.390816D+00 -0.585011D+00
      8  -0.365336D+00  0.338701D+00 -0.483773D+00 -0.390816D+00  0.199615D-01
      9  -0.149278D-04  0.000000D+00 -0.120451D-04 -0.324804D-05  0.146520D-04
     10  -0.176892D-05  0.117448D-04  0.000000D+00 -0.280645D-05 -0.124407D-04
     11  -0.172785D-04  0.000000D+00  0.000000D+00 -0.189195D-05  0.194044D-04
                 6             7             8             9            10 
      1  -0.365336D+00  0.799715D+00 -0.365336D+00 -0.149278D-04 -0.176892D-05
      2   0.774999D+00 -0.338701D+00  0.338701D+00  0.000000D+00  0.117448D-04
      3  -0.424266D+00 -0.391605D+00 -0.483773D+00 -0.120451D-04  0.000000D+00
      4  -0.390816D+00  0.390816D+00 -0.390816D+00 -0.324804D-05 -0.280645D-05
      5  -0.549199D+00 -0.585011D+00  0.199615D-01  0.146520D-04 -0.124407D-04
      6   0.100953D+01 -0.460333D+00  0.518791D+00  0.293444D-04  0.515092D-05
      7  -0.460333D+00  0.104534D+01 -0.538752D+00  0.128848D-04 -0.998398D-05
      8   0.518791D+00 -0.538752D+00  0.102848D+01  0.304217D-05  0.603982D-05
      9   0.293444D-04  0.128848D-04  0.304217D-05  0.352594D+01 -0.107076D+01
     10   0.515092D-05 -0.998398D-05  0.603982D-05 -0.107076D+01  0.122551D+01
     11   0.191083D-04  0.270787D-05  0.371045D-05  0.255517D+01  0.124381D+00
                11 
      1  -0.172785D-04
      2   0.000000D+00
      3   0.000000D+00
      4  -0.189195D-05
      5   0.194044D-04
      6   0.191083D-04
      7   0.270787D-05
      8   0.371045D-05
      9   0.255517D+01
     10   0.124381D+00
     11   0.275201D+01
 Red2BG:  D1=  2.76D-01 OD1=  2.08D-15 B2RMS=  0.00D+00 IAprox=1
 Red2BG is reusing G-inverse.
 G-Inverse: 
                1             2             3             4             5 
      1  0.793090D+00
      2  0.987764D-01  0.778207D+00
      3  0.211582D+00  0.198881D+00  0.114660D+01
      4  0.168278D+00 -0.595803D-01  0.290288D+00  0.673617D+00
      5  0.119114D+00  0.134249D+00 -0.450828D+00 -0.118538D+00  0.675492D+00
      6  0.212295D+00 -0.403879D+00  0.148609D-01  0.219248D+00 -0.263438D+00
      7 -0.331409D+00  0.269629D+00  0.435967D+00 -0.100709D+00 -0.412053D+00
      8  0.129659D+00  0.192078D+00  0.888934D+00  0.310865D+00 -0.355077D+00
      9  0.235981D-05  0.000000D+00  0.489015D-05  0.211553D-05 -0.323549D-05
     10  0.000000D+00 -0.337384D-05 -0.198805D-05  0.000000D+00 -0.236032D-05
     11  0.000000D+00  0.230288D-05 -0.141329D-05 -0.146385D-05  0.361166D-05
                6             7             8             9            10 
      6  0.957475D+00
      7 -0.694037D+00  0.110609D+01
      8 -0.542703D+00  0.897780D+00  0.224231D+01
      9  0.468560D-05  0.000000D+00  0.255445D-05  0.142409D+00
     10  0.111346D-05 -0.116798D-05 -0.389794D-05 -0.149691D+00  0.393959D+00
     11 -0.699987D-05  0.333590D-05  0.125649D-05 -0.324289D-02  0.240024D+00
               11 
     11  0.236689D+00
 Internal  Forces:  Max     0.000046974 RMS     0.000025181
 Search for a local minimum.
 Step number   1 out of a maximum of    2
 All quantities printed in internal units (Hartrees-Bohrs-Radians)
 Second derivative matrix not updated -- analytic derivatives used.
 The second derivative matrix:
                          R1        R2        R3        R4        A1
           R1           0.34342
           R2           0.00356   0.32792
           R3           0.02229   0.01952   0.75564
           R4          -0.00035   0.00273  -0.00122   0.41823
           A1           0.00732   0.00963  -0.03135  -0.00073   0.08217
           A2           0.00410  -0.01061   0.02042   0.01002  -0.04180
           A3          -0.01142   0.00098   0.01093  -0.00929  -0.04037
           A4           0.00349  -0.00710   0.06952   0.02339  -0.00397
           D1           0.00000   0.00000   0.00000   0.00000  -0.00000
           D2          -0.00000  -0.00000  -0.00000   0.00000  -0.00000
           D3           0.00000   0.00000   0.00000   0.00000   0.00000
                          A2        A3        A4        D1        D2
           A2           0.10575
           A3          -0.06394   0.10432
           A4           0.01146  -0.00748   0.19755
           D1           0.00000   0.00000   0.00000   0.02317
           D2           0.00000  -0.00000  -0.00000  -0.01533   0.03566
           D3          -0.00000   0.00000  -0.00000   0.00850   0.01990
                          D3
           D3           0.02864
 ITU=  0
 IAlgDg is returning  0.
 DiagDN:  BShift=  1.00D+00
 Eigenvectors of the second derivative matrix:
                           1         2         3         4         5
     Eigenvalues --     0.03350   0.05398   0.11966   0.16231   0.19049
   1         R1         0.00000  -0.00000   0.04598   0.05164  -0.03463
   2         R2         0.00000  -0.00000   0.06099  -0.02609   0.08922
   3         R3         0.00000  -0.00000  -0.06358  -0.03682  -0.11666
   4         R4         0.00000   0.00000  -0.00316   0.01205  -0.11769
   5         A1        -0.00000   0.00000  -0.81234   0.01516   0.00565
   6         A2        -0.00001  -0.00000   0.39481  -0.65256   0.27721
   7         A3        -0.00000   0.00000   0.41754   0.63741  -0.28286
   8         A4         0.00000  -0.00000   0.00179   0.40349   0.89805
   9         D1        -0.76992   0.24768   0.00000  -0.00000   0.00000
  10         D2         0.17934  -0.80048   0.00000  -0.00000   0.00000
  11         D3        -0.61242  -0.54579  -0.00000   0.00001  -0.00000
                           6         7         8         9
     Eigenvalues --     0.32873   0.34385   0.42146   0.76850
   1         R1        -0.17380  -0.98034  -0.00301  -0.05230
   2         R2         0.97775  -0.17281  -0.01206  -0.04046
   3         R3        -0.01733   0.05495   0.01962  -0.98858
   4         R4         0.00018   0.00796  -0.99292  -0.00563
   5         A1         0.04409  -0.04786   0.00145   0.04761
   6         A2        -0.07122  -0.01108  -0.04194  -0.03400
   7         A3         0.02713   0.05894   0.04049  -0.01361
   8         A4        -0.07582   0.00984  -0.10080  -0.12125
   9         D1        -0.00000  -0.00000  -0.00000  -0.00000
  10         D2        -0.00000   0.00000  -0.00000   0.00000
  11         D3         0.00000  -0.00000   0.00000   0.00000
 Forces in eigenvector basis: 
                 1 
      1   0.000000D+00
      2   0.000000D+00
      3  -0.502456D-04
      4   0.172257D-04
      5  -0.115316D-04
      6   0.178119D-04
      7   0.445986D-04
      8   0.134740D-05
      9  -0.413721D-04
 Angle between quadratic step and forces=  32.48 degrees.
 Linear search not attempted -- first point.
 IB Matrix in FormBX:
              1            2            3            4            5
     1            1            1            1            4            2
     2            2            3            4            5            1
     3            0            0            0            0            3
     4            0            0            0            0            0
              6            7            8            9           10
     1            2            3            1            2            2
     2            1            1            4            1            1
     3            4            4            5            3            4
     4            0            0            0            4            5
             11
     1            3
     2            1
     3            4
     4            5
 B Matrix in FormBX:
                 1             2             3             4             5 
      1  -0.601951D+00 -0.459616D+00  0.989617D+00  0.478090D+00 -0.386413D+00
      2   0.798533D+00 -0.888118D+00  0.143726D+00 -0.878311D+00 -0.291286D+00
      3   0.274333D-04 -0.182084D-04  0.866172D-05 -0.185197D-04 -0.340421D-05
      4   0.601951D+00  0.459616D+00 -0.989617D+00 -0.478090D+00  0.814286D+00
      5  -0.798533D+00  0.888118D+00 -0.143726D+00  0.878311D+00  0.698546D-01
      6  -0.274333D-04  0.182084D-04 -0.866172D-05  0.185197D-04 -0.704631D-05
      7   0.000000D+00  0.000000D+00  0.000000D+00  0.000000D+00 -0.427873D+00
      8   0.000000D+00  0.000000D+00  0.000000D+00  0.000000D+00  0.221431D+00
      9   0.000000D+00  0.000000D+00  0.000000D+00  0.000000D+00  0.104505D-04
     10   0.000000D+00  0.000000D+00  0.000000D+00  0.000000D+00  0.000000D+00
     11   0.000000D+00  0.000000D+00  0.000000D+00  0.000000D+00  0.000000D+00
     12   0.000000D+00  0.000000D+00  0.000000D+00  0.000000D+00  0.000000D+00
                 6             7             8             9            10 
      1   0.386413D+00  0.427873D+00  0.598893D-01  0.584787D-05  0.187201D-05
      2   0.291286D+00 -0.221431D+00 -0.412363D+00 -0.140300D-04  0.203723D-04
      3   0.120624D-04 -0.115252D-05 -0.956278D-05  0.536703D+00 -0.551923D+00
      4  -0.326524D+00 -0.487762D+00  0.393144D+00 -0.300924D-05 -0.183456D-05
      5  -0.703649D+00  0.633795D+00  0.658963D+00  0.348879D-04 -0.251171D-04
      6  -0.270802D-04  0.790039D-05  0.178593D-04 -0.162570D+01  0.626376D+00
      7  -0.598893D-01  0.598893D-01 -0.453034D+00  0.000000D+00 -0.293753D-05
      8   0.412363D+00 -0.412363D+00 -0.246599D+00 -0.120043D-04 -0.842984D-05
      9   0.150178D-04 -0.674786D-05 -0.829655D-05  0.576363D+00  0.475497D+00
     10   0.000000D+00  0.000000D+00  0.000000D+00 -0.320104D-05  0.290008D-05
     11   0.000000D+00  0.000000D+00  0.000000D+00 -0.885360D-05  0.131746D-04
     12   0.000000D+00  0.000000D+00  0.000000D+00  0.512635D+00 -0.549950D+00
                11 
      1  -0.370103D-05
      2  -0.102365D-04
      3   0.592707D+00
      4   0.637831D-05
      5   0.190856D-04
      6  -0.104543D+01
      7  -0.557736D-05
      8  -0.220237D-04
      9   0.100267D+01
     10   0.290008D-05
     11   0.131746D-04
     12  -0.549950D+00
 Iteration  1 RMS(Cart)=  0.00012293 RMS(Int)=  0.00000002
 Iteration  2 RMS(Cart)=  0.00000002 RMS(Int)=  0.00000000
 Variable       Old X    -DE/DX   Delta X   Delta X   Delta X     New X
                                 (Linear)    (Quad)   (Total)
    R1        2.06653  -0.00005   0.00000  -0.00015  -0.00015   2.06638
    R2        2.07566   0.00001   0.00000  -0.00000  -0.00000   2.07566
    R3        2.39987   0.00005   0.00000   0.00009   0.00009   2.39996
    R4        1.93873   0.00000   0.00000   0.00001   0.00001   1.93874
    A1        2.01809   0.00004   0.00000   0.00034   0.00034   2.01842
    A2        2.07251  -0.00003   0.00000  -0.00026  -0.00026   2.07226
    A3        2.19258  -0.00000   0.00000  -0.00008  -0.00008   2.19250
    A4        1.92505   0.00000   0.00000  -0.00001  -0.00001   1.92504
    D1        3.14157   0.00000   0.00000   0.00002   0.00002   3.14159
    D2       -3.14158  -0.00000   0.00000  -0.00001  -0.00001  -3.14159
    D3       -0.00001   0.00000   0.00000   0.00001   0.00001   0.00000
         Item               Value     Threshold  Converged?
 Maximum Force            0.000047     0.000450     YES
 RMS     Force            0.000025     0.000300     YES
 Maximum Displacement     0.000271     0.001800     YES
 RMS     Displacement     0.000123     0.001200     YES
 Predicted change in Energy=-1.631446D-08
 Optimization completed.
    -- Stationary point found.
                           ----------------------------
                           !   Optimized Parameters   !
                           ! (Angstroms and Degrees)  !
 --------------------------                            --------------------------
 ! Name  Definition              Value          Derivative Info.                !
 --------------------------------------------------------------------------------
 ! R1    R(1,2)                  1.0936         -DE/DX =    0.0                 !
 ! R2    R(1,3)                  1.0984         -DE/DX =    0.0                 !
 ! R3    R(1,4)                  1.27           -DE/DX =    0.0                 !
 ! R4    R(4,5)                  1.0259         -DE/DX =    0.0                 !
 ! A1    A(2,1,3)              115.628          -DE/DX =    0.0                 !
 ! A2    A(2,1,4)              118.7462         -DE/DX =    0.0                 !
 ! A3    A(3,1,4)              125.6258         -DE/DX =    0.0                 !
 ! A4    A(1,4,5)              110.2972         -DE/DX =    0.0                 !
 ! D1    D(2,1,3,4)            179.9989         -DE/DX =    0.0                 !
 ! D2    D(2,1,4,5)           -179.9992         -DE/DX =    0.0                 !
 ! D3    D(3,1,4,5)             -0.0004         -DE/DX =    0.0                 !
 --------------------------------------------------------------------------------
 GradGradGradGradGradGradGradGradGradGradGradGradGradGradGradGradGradGrad

 Leave Link  103 at Sat Aug 10 16:32:47 2019, MaxMem=  4294967296 cpu:               0.2 elap:               0.0

 ----------------------------------------------------------------------

 Electric dipole moment (input orientation):
 (Debye = 10**-18 statcoulomb cm , SI units = C m)
                  (au)            (Debye)         (10**-30 SI)
   Tot        0.766223D+00      0.194754D+01      0.649631D+01
   x          0.449299D+00      0.114200D+01      0.380932D+01
   y          0.620667D+00      0.157758D+01      0.526224D+01
   z          0.136024D-04      0.345739D-04      0.115326D-03

 Dipole polarizability, Alpha (input orientation).
 (esu units = cm**3 , SI units = C**2 m**2 J**-1)
 Alpha(0;0):
               (au)            (10**-24 esu)      (10**-40 SI)
   iso        0.168830D+02      0.250180D+01      0.278363D+01
   aniso      0.149478D+02      0.221503D+01      0.246455D+01
   xx         0.252725D+02      0.374499D+01      0.416687D+01
   yx        -0.813721D+00     -0.120581D+00     -0.134165D+00
   yy         0.172739D+02      0.255973D+01      0.284809D+01
   zx         0.307399D-04      0.455518D-05      0.506832D-05
   zy         0.238313D-03      0.353143D-04      0.392925D-04
   zz         0.810253D+01      0.120067D+01      0.133593D+01

 ----------------------------------------------------------------------

 Dipole orientation:
     6          0.70141516         -0.50774842          0.69343913
     1          2.30149099         -1.66598098          0.08615397
     1          0.45178169         -0.32704131          2.74609298
     7         -0.69309487          0.50172148         -0.97858889
     1         -2.11010776          1.52746610         -0.14276349

 Electric dipole moment (dipole orientation):
 (Debye = 10**-18 statcoulomb cm , SI units = C m)
                  (au)            (Debye)         (10**-30 SI)
   Tot        0.766223D+00      0.194754D+01      0.649631D+01
   x          0.000000D+00      0.000000D+00      0.000000D+00
   y          0.000000D+00      0.000000D+00      0.000000D+00
   z          0.766223D+00      0.194754D+01      0.649631D+01

 Dipole polarizability, Alpha (dipole orientation).
 (esu units = cm**3 , SI units = C**2 m**2 J**-1)
 Alpha(0;0):
               (au)            (10**-24 esu)      (10**-40 SI)
   iso        0.168830D+02      0.250180D+01      0.278363D+01
   aniso      0.149478D+02      0.221503D+01      0.246455D+01
   xx         0.180715D+02      0.267792D+01      0.297959D+01
   yx        -0.721633D+01     -0.106935D+01     -0.118981D+01
   yy         0.133263D+02      0.197475D+01      0.219721D+01
   zx         0.287164D+01      0.425533D+00      0.473469D+00
   zy        -0.207878D+01     -0.308044D+00     -0.342745D+00
   zz         0.192512D+02      0.285273D+01      0.317409D+01

 ----------------------------------------------------------------------

 Test job not archived.
 1\1\NSC-N408\Freq\RB3LYP\6-31G(d,p)\C1H3N1\X_KJEJO\10-Aug-2019\0\\# fr
 eq(intmodes) iop(1/33=3) b3lyp/6-31g(d,p) geom=connectivity iop(7/75=-
 1)\\name\\0,1\C,0.586346,0.028554,0.000005\H,1.244615,-0.84469,-0.0000
 25\H,1.091184,1.004055,0.000025\N,-0.670424,-0.153972,-0.000006\H,-1.1
 60912,0.747116,0.000013\\Version=ES64L-G16RevB.01\State=1-A\HF=-94.633
 4595\RMSD=1.137e-09\RMSF=3.586e-05\ZeroPoint=0.0399845\Thermal=0.04290
 3\Dipole=0.449299,0.6206674,0.0000136\DipoleDeriv=0.5212813,0.0058363,
 -0.000002,0.0321651,0.4562031,0.0000125,-0.0000041,0.0000127,-0.044455
 ,-0.0493867,0.0804384,0.0000022,0.0870754,-0.0872382,-0.000004,0.00000
 52,-0.0000057,0.0832196,-0.0578503,-0.0764846,-0.000002,-0.1165768,-0.
 1508325,-0.0000081,-0.0000007,-0.0000059,0.145799,-0.6062496,-0.072592
 2,0.0000005,-0.1959271,-0.1962951,0.000006,-0.0000046,0.0000045,-0.434
 4787,0.1922053,0.0628022,0.0000013,0.1932633,-0.0218372,-0.0000065,0.0
 000043,-0.0000056,0.249915\Polar=25.2724761,-0.8137215,17.2739345,0.00
 00307,0.0002383,8.1025348\Quadrupole=0.3558612,0.2452635,-0.6011247,-1
 .4970345,-0.0000392,0.000016\PG=C01 [X(C1H3N1)]\NImag=0\\0.92809208,0.
 02093706,0.63555296,0.00000132,0.00001340,0.14058848,-0.13456780,0.115
 56222,0.00000403,0.16347563,0.11882397,-0.24253517,-0.00000627,-0.1340
 6736,0.24354340,0.00000446,-0.00000676,-0.04475982,-0.00000445,0.00000
 695,0.02663677,-0.10204632,-0.08354025,-0.00000159,0.00916573,0.014899
 40,0.00000034,0.11478207,-0.08583830,-0.26517950,-0.00000473,-0.011135
 06,-0.01755067,-0.00000052,0.10612475,0.27516397,-0.00000140,-0.000004
 22,-0.05093146,-0.00000031,-0.00000082,0.00824754,0.00000223,0.0000055
 2,0.02357160,-0.65602135,-0.09934708,-0.00000489,-0.03253410,0.0027512
 0,-0.00000011,-0.02521190,-0.00958950,-0.00000062,0.82235251,-0.034403
 56,-0.12403330,-0.00000211,0.02815985,0.01396781,0.00000069,-0.0365464
 2,0.00240367,-0.00000093,-0.07288665,0.43610831,-0.00000372,-0.0000026
 5,-0.04756215,0.00000067,0.00000071,-0.00900836,-0.00000099,-0.0000007
 0,0.03277263,0.00000175,0.00000876,0.06317198,-0.03545661,0.04638804,0
 .00000113,-0.00553947,-0.00240722,-0.00000024,0.00331042,0.00043811,0.
 00000010,-0.10858516,0.11567677,0.00000229,0.14627082,-0.01951918,-0.0
 0380500,-0.00000028,0.00148035,0.00257463,-0.00000035,-0.00093748,0.00
 516253,0.00000045,0.17907202,-0.32844650,-0.00000611,-0.16009570,0.324
 51433,-0.00000066,0.00000024,0.00266495,0.00000006,-0.00000057,0.01888
 387,0.00000001,0.00000044,-0.01366030,0.00000387,-0.00000640,-0.039374
 10,-0.00000328,0.00000629,0.03148559\\-0.00011436,0.00001086,0.0000016
 4,0.00005551,-0.00001535,-0.00000073,0.00001425,-0.00001504,-0.0000004
 6,0.00004395,0.00002033,-0.00000016,0.00000066,-0.00000080,-0.00000029
 \\\@


 THE SCIENTIFIC THEORIST IS NOT TO BE ENVIED. FOR NATURE, OR MORE
 PRECISELY EXPERIMENT, IS AN INEXORABLE AND NOT VERY FRIENDLY JUDGE OF HIS
 WORK.  IT NEVER SAYS "YES" TO A THEORY. IN THE MOST FAVORABLE CASES
 IT SAYS "MAYBE", AND IN THE GREAT MAJORITY OF CASES SIMPLY "NO"...
 PROBABLY EVERY THEORY WILL SOME DAY EXPERIENCE ITS "NO" - MOST
 THEORIES, SOON AFTER CONCEPTION.  -- A.EINSTEIN, NOV 11, 1922.
 Job cpu time:       0 days  0 hours  0 minutes 46.6 seconds.
 Elapsed time:       0 days  0 hours  0 minutes  3.4 seconds.
 File lengths (MBytes):  RWF=      6 Int=      0 D2E=      0 Chk=      8 Scr=      1
 Normal termination of Gaussian 16 at Sat Aug 10 16:32:47 2019.
