5
freq.log	Energy:  -25429.2025297
C          0.00000        0.00000        0.00000
H          0.63045        0.63045        0.63045
H         -0.63045       -0.63045        0.63045
H         -0.63045        0.63045       -0.63045
H          0.63045       -0.63045       -0.63045
