8
freq.log	Energy:  -50099.5663551
C          0.00000        0.00000        0.76504
H          0.00000        1.01980        1.16435
H          0.88317       -0.50990        1.16435
H         -0.88317       -0.50990        1.16435
C         -0.00000       -0.00000       -0.76504
H         -0.00000       -1.01980       -1.16435
H         -0.88317        0.50990       -1.16435
H          0.88317        0.50990       -1.16435
