8
freq.log	Energy: -143757.0727903
C          1.05815       -0.91825        0.00000
H          0.94243       -1.55630        0.88102
H          2.04449       -0.45668        0.00000
H          0.94243       -1.55630       -0.88102
C          0.00000        0.15539        0.00000
O          0.19612        1.34966        0.00000
O         -1.24826       -0.37838        0.00000
H         -1.86113        0.37629        0.00000
