6
freq.log	Energy: -337719.4177149
C          1.29544        1.05129        0.00000
H          2.06115        0.28375        0.00000
H          1.61055        2.08971        0.00000
C          0.00000        0.76521        0.00000
H         -0.78773        1.50954        0.00000
Cl        -0.62686       -0.86953        0.00000
