5
freq.log	Energy:  -95759.2162590
C          0.00002       -1.21356        0.00000
H          0.93957       -1.74954        0.00000
H         -0.93953       -1.74956       -0.00000
C          0.00000        0.10076        0.00000
O         -0.00002        1.27199       -0.00000
