4
freq.log	Energy:  -48525.0353487
C          0.00000        0.00000        0.60267
H          0.00000        0.00000        1.66839
C          0.00000        0.00000       -0.60267
H          0.00000        0.00000       -1.66839
