11
freq.log	Energy:  -74771.1164487
C         -0.00000        1.27722       -0.25958
H          0.88366        1.32267       -0.90672
H         -0.88366        1.32267       -0.90672
H         -0.00000        2.17557        0.36680
C          0.00000        0.00000        0.58585
H          0.87666       -0.00000        1.24659
H         -0.87666        0.00000        1.24659
C         -0.00000       -1.27722       -0.25958
H          0.88366       -1.32267       -0.90672
H         -0.00000       -2.17557        0.36680
H         -0.88366       -1.32267       -0.90672
