5
freq.log	Energy:  -87687.1016045
C          0.00000        0.00000       -0.62977
H         -0.00000        1.03178       -0.99939
H         -0.89355       -0.51589       -0.99939
H          0.89355       -0.51589       -0.99939
F          0.00000        0.00000        0.75298
