8
freq.log	Energy: -120430.3715882
C          1.20809        1.29289        0.00000
H          2.11411        0.69054        0.00000
H          1.33923        2.37003        0.00000
C          0.00000        0.71911       -0.00000
H         -0.91987        1.29854       -0.00000
C         -0.14666       -0.74866        0.00000
H          0.81594       -1.30958        0.00000
O         -1.21475       -1.32870       -0.00000
