7
freq.log	Energy:  -73207.8049782
C          0.00000        0.00000        1.30649
H          0.00000        0.92781        1.87359
H         -0.00000       -0.92781        1.87359
C          0.00000        0.00000        0.00000
C          0.00000        0.00000       -1.30649
H         -0.92781        0.00000       -1.87359
H          0.92781       -0.00000       -1.87359
