7
freq.log	Energy:  -73204.8945121
C         -0.00000        0.00000        0.21833
C         -0.00000        0.00000        1.42574
H         -0.00000        0.00000        2.49083
C         -0.00000        0.00000       -1.24104
H         -1.02177        0.00000       -1.63633
H          0.51088        0.88488       -1.63633
H          0.51088       -0.88488       -1.63633
