10
freq.log	Energy:  -97892.5206106
C          0.60184        1.75071        0.00000
H         -0.32544        2.31814        0.00000
H          1.52395        2.32233        0.00000
C          0.60184        0.41072        0.00000
H          1.55116       -0.12483        0.00000
C         -0.60184       -0.41072        0.00000
H         -1.55116        0.12483        0.00000
C         -0.60184       -1.75071        0.00000
H          0.32544       -2.31814        0.00000
H         -1.52395       -2.32233        0.00000
