10
freq.log	Energy:  -97883.5327762
C          0.00000       -0.00000        0.60460
C          0.00000       -0.00000       -0.60460
C          0.00000       -0.00000       -2.06521
H          0.00000        1.02071       -2.46428
H          0.88396       -0.51035       -2.46428
H         -0.88396       -0.51035       -2.46428
C         -0.00000       -0.00000        2.06521
H         -0.00000        1.02071        2.46428
H         -0.88396       -0.51035        2.46428
H          0.88396       -0.51035        2.46428
