6
freq.log	Energy:  -96313.6523602
C          0.00000        0.00000        1.89679
H          0.00000        0.00000        2.96227
C          0.00000        0.00000        0.68437
C          0.00000        0.00000       -0.68437
C          0.00000        0.00000       -1.89679
H          0.00000        0.00000       -2.96227
