12
freq.log	Energy: -145744.2207462
C         -0.00000        1.39620        0.00000
C          1.20914        0.69810        0.00000
C          1.20914       -0.69810        0.00000
C          0.00000       -1.39620        0.00000
C         -1.20914       -0.69810        0.00000
C         -1.20914        0.69810        0.00000
H         -0.00000        2.48226        0.00000
H          2.14970        1.24113        0.00000
H          2.14970       -1.24113        0.00000
H          0.00000       -2.48226        0.00000
H         -2.14970       -1.24113        0.00000
H         -2.14970        1.24113        0.00000
