7
freq.log	Energy:  -60155.3710731
C         -0.70547        0.00000        0.01757
H         -1.08637       -0.00001        1.05327
H         -1.11751       -0.88043       -0.48635
H         -1.11751        0.88043       -0.48634
N          0.75248       -0.00000       -0.12579
H          1.14343        0.81142        0.34727
H          1.14343       -0.81142        0.34727
