5
freq.log	Energy: -313825.3582547
C          0.00000       -0.00000       -1.13946
H          1.03331        0.00000       -1.48444
H         -0.51665        0.89487       -1.48444
H         -0.51665       -0.89487       -1.48444
Cl         0.00000       -0.00000        0.66412
