4
freq.log	Energy:  -71851.8418254
C          0.52899       -0.00000       -0.00001
O         -0.67771       -0.00001        0.00000
H          1.12374        0.93780        0.00001
H          1.12398       -0.93766        0.00001
