5
freq.log	Energy:  -59383.3919298
C          0.58635        0.02855        0.00001
H          1.24462       -0.84469       -0.00003
H          1.09118        1.00405        0.00003
N         -0.67042       -0.15397       -0.00001
H         -1.16091        0.74712        0.00001
