3
freq.log	Energy:  -58624.8094164
N          0.00000        0.00000        0.65484
C          0.00000        0.00000       -0.50218
H          0.00000        0.00000       -1.57080
