name                                                                    
Freq      RB3LYP                                                      6-31G(d,p)          
Number of atoms                            I                5
Info1-9                                    I   N=           9
          18          18           0           0           0         101
           6          18        -502
Full Title                                 C   N=           1
name        
Route                                      C   N=           7
# freq(intmodes) iop(1/33=3) b3lyp/6-31g(d,p) geom=connectiv
ity iop(7/75=-1)        
Charge                                     I                0
Multiplicity                               I                1
Number of electrons                        I               10
Number of alpha electrons                  I                5
Number of beta electrons                   I                5
Number of basis functions                  I               35
Number of independent functions            I               35
Number of point charges in /Mol/           I                0
Number of translation vectors              I                0
Atomic numbers                             I   N=           5
           6           1           1           1           1
Nuclear charges                            R   N=           5
  6.00000000E+00  1.00000000E+00  1.00000000E+00  1.00000000E+00  1.00000000E+00
Current cartesian coordinates              R   N=          15
  0.00000000E+00  0.00000000E+00  0.00000000E+00  1.19137784E+00  1.19137784E+00
  1.19137784E+00 -1.19137784E+00 -1.19137784E+00  1.19137784E+00 -1.19137784E+00
  1.19137784E+00 -1.19137784E+00  1.19137784E+00 -1.19137784E+00 -1.19137784E+00
Number of symbols in /Mol/                 I                0
Force Field                                I                0
Atom Types                                 C   N=           5
                                                            
Int Atom Types                             I   N=           5
           0           0           0           0           0
MM charges                                 R   N=           5
  0.00000000E+00  0.00000000E+00  0.00000000E+00  0.00000000E+00  0.00000000E+00
Integer atomic weights                     I   N=           5
          12           1           1           1           1
Real atomic weights                        R   N=           5
  1.20000000E+01  1.00782504E+00  1.00782504E+00  1.00782504E+00  1.00782504E+00
Atom fragment info                         I   N=           5
           0           0           0           0           0
Atom residue num                           I   N=           5
           0           0           0           0           0
Nuclear spins                              I   N=           5
           0           1           1           1           1
Nuclear ZEff                               R   N=           5
 -3.60000000E+00 -1.00000000E+00 -1.00000000E+00 -1.00000000E+00 -1.00000000E+00
Nuclear ZNuc                               R   N=           5
  6.00000000E+00  1.00000000E+00  1.00000000E+00  1.00000000E+00  1.00000000E+00
Nuclear QMom                               R   N=           5
  0.00000000E+00  0.00000000E+00  0.00000000E+00  0.00000000E+00  0.00000000E+00
Nuclear GFac                               R   N=           5
  0.00000000E+00  2.79284600E+00  2.79284600E+00  2.79284600E+00  2.79284600E+00
MicOpt                                     I   N=           5
          -1          -1          -1          -1          -1
Number of residues                         I                0
Number of secondary structures             I                0
Redundant internal dimensions              I   N=           4
          14           4           6           4
Redundant internal coordinate indices      I   N=          56
           1           2           0           0           1           3
           0           0           1           4           0           0
           1           5           0           0           2           1
           3           0           2           1           4           0
           2           1           5           0           3           1
           4           0           3           1           5           0
           4           1           5           0           2           1
           4           3           2           1           5           3
           2           1           5           4           3           1
           5           4
Redundant internal coordinates             R   N=          14
  2.06352694E+00  2.06352694E+00  2.06352694E+00  2.06352694E+00  1.91063324E+00
  1.91063324E+00  1.91063324E+00  1.91063324E+00  1.91063324E+00  1.91063324E+00
 -2.09439510E+00  2.09439510E+00 -2.09439510E+00  2.09439510E+00
ZRed-IntVec                                I   N=          14
           0           0           0           0           0           0
           0           0           0           0           0           0
           0           0
ZRed-FPVec                                 R   N=          14
  0.00000000E+00  0.00000000E+00  0.00000000E+00  0.00000000E+00  0.00000000E+00
  0.00000000E+00  0.00000000E+00  0.00000000E+00  0.00000000E+00  0.00000000E+00
  0.00000000E+00  0.00000000E+00  0.00000000E+00  0.00000000E+00
ZRed-Constraint1                           R   N=          14
  2.06352694E+00  2.06352694E+00  2.06352694E+00  2.06352694E+00  1.91063324E+00
  1.91063324E+00  1.91063324E+00  1.91063324E+00  1.91063324E+00  1.91063324E+00
 -2.09439510E+00  2.09439510E+00 -2.09439510E+00  2.09439510E+00
ZRed-Constraint2                           R   N=          14
  0.00000000E+00  0.00000000E+00  0.00000000E+00  0.00000000E+00  0.00000000E+00
  0.00000000E+00  0.00000000E+00  0.00000000E+00  0.00000000E+00  0.00000000E+00
  0.00000000E+00  0.00000000E+00  0.00000000E+00  0.00000000E+00
SymInf integers                            I   N=          26
           4           4           1           1           1           1
          -1          -1          -1           1          -1          -1
          -1           1           0           0           0           0
           0           0           0           0           0           0
           0           0
RotTr to input orientation                 R   N=          12
  1.00000000E+00 -6.83580866E-17  1.92296269E-16  1.21168839E-16  1.00000000E+00
  1.92296269E-16 -1.92296269E-16 -1.92296269E-16  1.00000000E+00  0.00000000E+00
  0.00000000E+00  0.00000000E+00
Number of contracted shells                I               16
Number of primitive shells                 I               31
Pure/Cartesian d shells                    I                1
Pure/Cartesian f shells                    I                0
Highest angular momentum                   I                2
Largest degree of contraction              I                6
Shell types                                I   N=          16
           0          -1          -1           2           0           0
           1           0           0           1           0           0
           1           0           0           1
Number of primitives per shell             I   N=          16
           6           3           1           1           3           1
           1           3           1           1           3           1
           1           3           1           1
Shell to atom map                          I   N=          16
           1           1           1           1           2           2
           2           3           3           3           4           4
           4           5           5           5
Primitive exponents                        R   N=          31
  3.04752488E+03  4.57369518E+02  1.03948685E+02  2.92101553E+01  9.28666296E+00
  3.16392696E+00  7.86827235E+00  1.88128854E+00  5.44249258E-01  1.68714478E-01
  8.00000000E-01  1.87311370E+01  2.82539436E+00  6.40121692E-01  1.61277759E-01
  1.10000000E+00  1.87311370E+01  2.82539436E+00  6.40121692E-01  1.61277759E-01
  1.10000000E+00  1.87311370E+01  2.82539436E+00  6.40121692E-01  1.61277759E-01
  1.10000000E+00  1.87311370E+01  2.82539436E+00  6.40121692E-01  1.61277759E-01
  1.10000000E+00
Contraction coefficients                   R   N=          31
  1.83473713E-03  1.40373228E-02  6.88426223E-02  2.32184443E-01  4.67941348E-01
  3.62311985E-01 -1.19332420E-01 -1.60854152E-01  1.14345644E+00  1.00000000E+00
  1.00000000E+00  3.34946043E-02  2.34726953E-01  8.13757326E-01  1.00000000E+00
  1.00000000E+00  3.34946043E-02  2.34726953E-01  8.13757326E-01  1.00000000E+00
  1.00000000E+00  3.34946043E-02  2.34726953E-01  8.13757326E-01  1.00000000E+00
  1.00000000E+00  3.34946043E-02  2.34726953E-01  8.13757326E-01  1.00000000E+00
  1.00000000E+00
P(S=P) Contraction coefficients            R   N=          31
  0.00000000E+00  0.00000000E+00  0.00000000E+00  0.00000000E+00  0.00000000E+00
  0.00000000E+00  6.89990666E-02  3.16423961E-01  7.44308291E-01  1.00000000E+00
  0.00000000E+00  0.00000000E+00  0.00000000E+00  0.00000000E+00  0.00000000E+00
  0.00000000E+00  0.00000000E+00  0.00000000E+00  0.00000000E+00  0.00000000E+00
  0.00000000E+00  0.00000000E+00  0.00000000E+00  0.00000000E+00  0.00000000E+00
  0.00000000E+00  0.00000000E+00  0.00000000E+00  0.00000000E+00  0.00000000E+00
  0.00000000E+00
Coordinates of each shell                  R   N=          48
  0.00000000E+00  0.00000000E+00  0.00000000E+00  0.00000000E+00  0.00000000E+00
  0.00000000E+00  0.00000000E+00  0.00000000E+00  0.00000000E+00  0.00000000E+00
  0.00000000E+00  0.00000000E+00  1.19137784E+00  1.19137784E+00  1.19137784E+00
  1.19137784E+00  1.19137784E+00  1.19137784E+00  1.19137784E+00  1.19137784E+00
  1.19137784E+00 -1.19137784E+00 -1.19137784E+00  1.19137784E+00 -1.19137784E+00
 -1.19137784E+00  1.19137784E+00 -1.19137784E+00 -1.19137784E+00  1.19137784E+00
 -1.19137784E+00  1.19137784E+00 -1.19137784E+00 -1.19137784E+00  1.19137784E+00
 -1.19137784E+00 -1.19137784E+00  1.19137784E+00 -1.19137784E+00  1.19137784E+00
 -1.19137784E+00 -1.19137784E+00  1.19137784E+00 -1.19137784E+00 -1.19137784E+00
  1.19137784E+00 -1.19137784E+00 -1.19137784E+00
Num ILSW                                   I              100
ILSW                                       I   N=         100
           0           1           0           0           2           0
           0           0           0           0         402          -1
           5           0           0           0           2           0
           0           0           1           0           1           0
           1           0           0           0           0           0
           0           0      100000           0          -1           0
           0           0           0           0           0           0
           0           0           0           1           0           0
           0 -2000000000           1           0           0           0
           0           0           4          52           0           0
           0           0           5           0           0           0
           0           0           0           5           0           1
           0           0           0           0           0           0
           0           0           0           0           0           0
           0           0           0           0           0           0
           0           0           0           0           0           0
           0           0           0           0
Num RLSW                                   I               52
RLSW                                       R   N=          52
  8.00000000E-01  7.20000000E-01  1.00000000E+00  8.10000000E-01  2.00000000E-01
  0.00000000E+00  0.00000000E+00  1.00000000E+00  0.00000000E+00  0.00000000E+00
  0.00000000E+00  0.00000000E+00  1.00000000E+00  0.00000000E+00  0.00000000E+00
  0.00000000E+00  0.00000000E+00  1.00000000E+00  0.00000000E+00  0.00000000E+00
  0.00000000E+00  0.00000000E+00  1.00000000E+00  0.00000000E+00  0.00000000E+00
  0.00000000E+00  0.00000000E+00  1.00000000E+00  0.00000000E+00  0.00000000E+00
  0.00000000E+00  0.00000000E+00  1.00000000E+00  0.00000000E+00  0.00000000E+00
  0.00000000E+00  0.00000000E+00  0.00000000E+00  1.00000000E+00  1.00000000E+00
  0.00000000E+00  1.00000000E+00  0.00000000E+00  0.00000000E+00  0.00000000E+00
  0.00000000E+00  0.00000000E+00  0.00000000E+00  0.00000000E+00  0.00000000E+00
  0.00000000E+00  0.00000000E+00
MxBond                                     I                4
NBond                                      I   N=           5
           4           1           1           1           1
IBond                                      I   N=          20
           2           3           4           5           1           0
           0           0           1           0           0           0
           1           0           0           0           1           0
           0           0
RBond                                      R   N=          20
  1.00000000E+00  1.00000000E+00  1.00000000E+00  1.00000000E+00  1.00000000E+00
  0.00000000E+00  0.00000000E+00  0.00000000E+00  1.00000000E+00  0.00000000E+00
  0.00000000E+00  0.00000000E+00  1.00000000E+00  0.00000000E+00  0.00000000E+00
  0.00000000E+00  1.00000000E+00  0.00000000E+00  0.00000000E+00  0.00000000E+00
Virial Ratio                               R      2.011116971398472E+00
SCF Energy                                 R     -4.052401403639084E+01
Total Energy                               R     -4.052401403639084E+01
RMS Force                                  R      3.255662225419856E-05
RMS Density                                R      1.984006589849692E-09
NImag                                      I                0
Job Status                                 I                1
Nuclear derivative order                   I                2
External E-field                           R   N=          35
  0.00000000E+00  0.00000000E+00  0.00000000E+00  0.00000000E+00  0.00000000E+00
  0.00000000E+00  0.00000000E+00  0.00000000E+00  0.00000000E+00  0.00000000E+00
  0.00000000E+00  0.00000000E+00  0.00000000E+00  0.00000000E+00  0.00000000E+00
  0.00000000E+00  0.00000000E+00  0.00000000E+00  0.00000000E+00  0.00000000E+00
  0.00000000E+00  0.00000000E+00  0.00000000E+00  0.00000000E+00  0.00000000E+00
  0.00000000E+00  0.00000000E+00  0.00000000E+00  0.00000000E+00  0.00000000E+00
  0.00000000E+00  0.00000000E+00  0.00000000E+00  0.00000000E+00  0.00000000E+00
IOpCl                                      I                0
IROHF                                      I                0
Alpha Orbital Energies                     R   N=          35
 -1.01670725E+01 -6.90406743E-01 -3.88309106E-01 -3.88309106E-01 -3.88309106E-01
  1.18237673E-01  1.76769985E-01  1.76769985E-01  1.76769985E-01  5.29148704E-01
  5.29148704E-01  5.29148704E-01  8.74373801E-01  8.74373801E-01  8.74373801E-01
  9.22379647E-01  1.10030555E+00  1.36342085E+00  1.36342085E+00  2.04814698E+00
  2.04814698E+00  2.04814698E+00  2.05173903E+00  2.05173903E+00  2.05173903E+00
  2.62985896E+00  2.62985896E+00  2.62985896E+00  2.91127052E+00  2.91127052E+00
  3.11530340E+00  3.42039072E+00  3.42039072E+00  3.42039072E+00  4.42253811E+00
Alpha MO coefficients                      R   N=        1225
  9.92842550E-01  4.95524761E-02  0.00000000E+00  0.00000000E+00  0.00000000E+00
 -1.45433802E-02  0.00000000E+00  0.00000000E+00  0.00000000E+00 -9.12350983E-03
 -9.12350983E-03 -9.12350983E-03  0.00000000E+00  0.00000000E+00  0.00000000E+00
 -2.23871096E-04  2.54872262E-03  1.01482142E-04  1.01482142E-04  1.01482142E-04
 -2.23871096E-04  2.54872262E-03 -1.01482142E-04 -1.01482142E-04  1.01482142E-04
 -2.23871096E-04  2.54872262E-03 -1.01482142E-04  1.01482142E-04 -1.01482142E-04
 -2.23871096E-04  2.54872262E-03  1.01482142E-04 -1.01482142E-04 -1.01482142E-04
 -1.99444995E-01  3.86724551E-01  0.00000000E+00  0.00000000E+00  0.00000000E+00
  3.44272718E-01  0.00000000E+00  0.00000000E+00  0.00000000E+00 -9.52764149E-03
 -9.52764149E-03 -9.52764149E-03  0.00000000E+00  0.00000000E+00  0.00000000E+00
  1.37849422E-01  4.54474940E-02 -7.58215949E-03 -7.58215949E-03 -7.58215949E-03
  1.37849422E-01  4.54474940E-02  7.58215949E-03  7.58215949E-03 -7.58215949E-03
  1.37849422E-01  4.54474940E-02  7.58215949E-03 -7.58215949E-03  7.58215949E-03
  1.37849422E-01  4.54474940E-02 -7.58215949E-03  7.58215949E-03  7.58215949E-03
  0.00000000E+00  0.00000000E+00  0.00000000E+00  4.42761822E-01  0.00000000E+00
  0.00000000E+00  0.00000000E+00  2.00222694E-01  0.00000000E+00  0.00000000E+00
  0.00000000E+00  0.00000000E+00  0.00000000E+00  2.28530405E-02  0.00000000E+00
  1.70161875E-01  1.51044595E-01 -5.23138058E-03  3.24969407E-03 -5.23138058E-03
 -1.70161875E-01 -1.51044595E-01 -5.23138058E-03  3.24969407E-03  5.23138058E-03
  1.70161875E-01  1.51044595E-01  5.23138058E-03  3.24969407E-03  5.23138058E-03
 -1.70161875E-01 -1.51044595E-01  5.23138058E-03  3.24969407E-03 -5.23138058E-03
  0.00000000E+00  0.00000000E+00  4.42761822E-01  0.00000000E+00  0.00000000E+00
  0.00000000E+00  2.00222694E-01  0.00000000E+00  0.00000000E+00  0.00000000E+00
  0.00000000E+00  0.00000000E+00  0.00000000E+00  0.00000000E+00  2.28530405E-02
  1.70161875E-01  1.51044595E-01  3.24969407E-03 -5.23138058E-03 -5.23138058E-03
 -1.70161875E-01 -1.51044595E-01  3.24969407E-03 -5.23138058E-03  5.23138058E-03
 -1.70161875E-01 -1.51044595E-01  3.24969407E-03  5.23138058E-03 -5.23138058E-03
  1.70161875E-01  1.51044595E-01  3.24969407E-03  5.23138058E-03  5.23138058E-03
  0.00000000E+00  0.00000000E+00  0.00000000E+00  0.00000000E+00  4.42761822E-01
  0.00000000E+00  0.00000000E+00  0.00000000E+00  2.00222694E-01  0.00000000E+00
  0.00000000E+00  0.00000000E+00  2.28530405E-02  0.00000000E+00  0.00000000E+00
  1.70161875E-01  1.51044595E-01 -5.23138058E-03 -5.23138058E-03  3.24969407E-03
  1.70161875E-01  1.51044595E-01  5.23138058E-03  5.23138058E-03  3.24969407E-03
 -1.70161875E-01 -1.51044595E-01 -5.23138058E-03  5.23138058E-03  3.24969407E-03
 -1.70161875E-01 -1.51044595E-01  5.23138058E-03 -5.23138058E-03  3.24969407E-03
 -1.63215597E-01  1.97647112E-01  0.00000000E+00  0.00000000E+00  0.00000000E+00
  2.60834272E+00  0.00000000E+00  0.00000000E+00  0.00000000E+00 -1.69679434E-02
 -1.69679434E-02 -1.69679434E-02  0.00000000E+00  0.00000000E+00  0.00000000E+00
 -1.77991915E-02 -9.90718978E-01 -2.99952247E-03 -2.99952247E-03 -2.99952247E-03
 -1.77991915E-02 -9.90718978E-01  2.99952247E-03  2.99952247E-03 -2.99952247E-03
 -1.77991915E-02 -9.90718978E-01  2.99952247E-03 -2.99952247E-03  2.99952247E-03
 -1.77991915E-02 -9.90718978E-01 -2.99952247E-03  2.99952247E-03  2.99952247E-03
  0.00000000E+00  0.00000000E+00  0.00000000E+00  0.00000000E+00  3.81220600E-01
  0.00000000E+00  0.00000000E+00  0.00000000E+00  1.34475543E+00  0.00000000E+00
  0.00000000E+00  0.00000000E+00 -2.01419572E-02  0.00000000E+00  0.00000000E+00
 -7.27950702E-02 -1.07454996E+00 -5.05464136E-03 -5.05464136E-03  6.48274545E-03
 -7.27950702E-02 -1.07454996E+00  5.05464136E-03  5.05464136E-03  6.48274545E-03
  7.27950702E-02  1.07454996E+00 -5.05464136E-03  5.05464136E-03  6.48274545E-03
  7.27950702E-02  1.07454996E+00  5.05464136E-03 -5.05464136E-03  6.48274545E-03
  0.00000000E+00  0.00000000E+00  0.00000000E+00  3.81220600E-01  0.00000000E+00
  0.00000000E+00  0.00000000E+00  1.34475543E+00  0.00000000E+00  0.00000000E+00
  0.00000000E+00  0.00000000E+00  0.00000000E+00 -2.01419572E-02  0.00000000E+00
 -7.27950702E-02 -1.07454996E+00 -5.05464136E-03  6.48274545E-03 -5.05464136E-03
  7.27950702E-02  1.07454996E+00 -5.05464136E-03  6.48274545E-03  5.05464136E-03
 -7.27950702E-02 -1.07454996E+00  5.05464136E-03  6.48274545E-03  5.05464136E-03
  7.27950702E-02  1.07454996E+00  5.05464136E-03  6.48274545E-03 -5.05464136E-03
  0.00000000E+00  0.00000000E+00  3.81220600E-01  0.00000000E+00  0.00000000E+00
  0.00000000E+00  1.34475543E+00  0.00000000E+00  0.00000000E+00  0.00000000E+00
  0.00000000E+00  0.00000000E+00  0.00000000E+00  0.00000000E+00 -2.01419572E-02
 -7.27950702E-02 -1.07454996E+00  6.48274545E-03 -5.05464136E-03 -5.05464136E-03
  7.27950702E-02  1.07454996E+00  6.48274545E-03 -5.05464136E-03  5.05464136E-03
  7.27950702E-02  1.07454996E+00  6.48274545E-03  5.05464136E-03 -5.05464136E-03
 -7.27950702E-02 -1.07454996E+00  6.48274545E-03  5.05464136E-03  5.05464136E-03
  0.00000000E+00  0.00000000E+00  0.00000000E+00  0.00000000E+00 -7.45858992E-01
  0.00000000E+00  0.00000000E+00  0.00000000E+00  1.45073478E+00  0.00000000E+00
  0.00000000E+00  0.00000000E+00 -7.58225421E-02  0.00000000E+00  0.00000000E+00
 -2.85502984E-01 -1.43173465E-01  7.65216871E-03  7.65216871E-03  2.77580716E-02
 -2.85502984E-01 -1.43173465E-01 -7.65216871E-03 -7.65216871E-03  2.77580716E-02
  2.85502984E-01  1.43173465E-01  7.65216871E-03 -7.65216871E-03  2.77580716E-02
  2.85502984E-01  1.43173465E-01 -7.65216871E-03  7.65216871E-03  2.77580716E-02
  0.00000000E+00  0.00000000E+00  0.00000000E+00 -7.45858992E-01  0.00000000E+00
  0.00000000E+00  0.00000000E+00  1.45073478E+00  0.00000000E+00  0.00000000E+00
  0.00000000E+00  0.00000000E+00  0.00000000E+00 -7.58225421E-02  0.00000000E+00
 -2.85502984E-01 -1.43173465E-01  7.65216871E-03  2.77580716E-02  7.65216871E-03
  2.85502984E-01  1.43173465E-01  7.65216871E-03  2.77580716E-02 -7.65216871E-03
 -2.85502984E-01 -1.43173465E-01 -7.65216871E-03  2.77580716E-02 -7.65216871E-03
  2.85502984E-01  1.43173465E-01 -7.65216871E-03  2.77580716E-02  7.65216871E-03
  0.00000000E+00  0.00000000E+00 -7.45858992E-01  0.00000000E+00  0.00000000E+00
  0.00000000E+00  1.45073478E+00  0.00000000E+00  0.00000000E+00  0.00000000E+00
  0.00000000E+00  0.00000000E+00  0.00000000E+00  0.00000000E+00 -7.58225421E-02
 -2.85502984E-01 -1.43173465E-01  2.77580716E-02  7.65216871E-03  7.65216871E-03
  2.85502984E-01  1.43173465E-01  2.77580716E-02  7.65216871E-03 -7.65216871E-03
  2.85502984E-01  1.43173465E-01  2.77580716E-02 -7.65216871E-03  7.65216871E-03
 -2.85502984E-01 -1.43173465E-01  2.77580716E-02 -7.65216871E-03 -7.65216871E-03
  0.00000000E+00  0.00000000E+00  0.00000000E+00  0.00000000E+00 -7.67177853E-01
  0.00000000E+00  0.00000000E+00  0.00000000E+00  1.31254620E+00  0.00000000E+00
  0.00000000E+00  0.00000000E+00  2.46924776E-01  0.00000000E+00  0.00000000E+00
  4.90124148E-01 -1.04290383E+00  5.27725949E-02  5.27725949E-02  1.84467146E-03
  4.90124148E-01 -1.04290383E+00 -5.27725949E-02 -5.27725949E-02  1.84467146E-03
 -4.90124148E-01  1.04290383E+00  5.27725949E-02 -5.27725949E-02  1.84467146E-03
 -4.90124148E-01  1.04290383E+00 -5.27725949E-02  5.27725949E-02  1.84467146E-03
  0.00000000E+00  0.00000000E+00  0.00000000E+00 -7.67177853E-01  0.00000000E+00
  0.00000000E+00  0.00000000E+00  1.31254620E+00  0.00000000E+00  0.00000000E+00
  0.00000000E+00  0.00000000E+00  0.00000000E+00  2.46924776E-01  0.00000000E+00
  4.90124148E-01 -1.04290383E+00  5.27725949E-02  1.84467146E-03  5.27725949E-02
 -4.90124148E-01  1.04290383E+00  5.27725949E-02  1.84467146E-03 -5.27725949E-02
  4.90124148E-01 -1.04290383E+00 -5.27725949E-02  1.84467146E-03 -5.27725949E-02
 -4.90124148E-01  1.04290383E+00 -5.27725949E-02  1.84467146E-03  5.27725949E-02
  0.00000000E+00  0.00000000E+00 -7.67177853E-01  0.00000000E+00  0.00000000E+00
  0.00000000E+00  1.31254620E+00  0.00000000E+00  0.00000000E+00  0.00000000E+00
  0.00000000E+00  0.00000000E+00  0.00000000E+00  0.00000000E+00  2.46924776E-01
  4.90124148E-01 -1.04290383E+00  1.84467146E-03  5.27725949E-02  5.27725949E-02
 -4.90124148E-01  1.04290383E+00  1.84467146E-03  5.27725949E-02 -5.27725949E-02
 -4.90124148E-01  1.04290383E+00  1.84467146E-03 -5.27725949E-02  5.27725949E-02
  4.90124148E-01 -1.04290383E+00  1.84467146E-03 -5.27725949E-02 -5.27725949E-02
  9.70267725E-02 -8.68068231E-01  0.00000000E+00  0.00000000E+00  0.00000000E+00
  1.36383927E+00  0.00000000E+00  0.00000000E+00  0.00000000E+00  3.22225109E-02
  3.22225109E-02  3.22225109E-02  0.00000000E+00  0.00000000E+00  0.00000000E+00
  6.09457733E-01 -6.02731388E-01  4.66756574E-02  4.66756574E-02  4.66756574E-02
  6.09457733E-01 -6.02731388E-01 -4.66756574E-02 -4.66756574E-02  4.66756574E-02
  6.09457733E-01 -6.02731388E-01 -4.66756574E-02  4.66756574E-02 -4.66756574E-02
  6.09457733E-01 -6.02731388E-01  4.66756574E-02 -4.66756574E-02 -4.66756574E-02
 -1.03060235E-01 -2.03099525E+00  0.00000000E+00  0.00000000E+00  0.00000000E+00
  5.43577822E+00  0.00000000E+00  0.00000000E+00  0.00000000E+00 -1.04628655E-01
 -1.04628655E-01 -1.04628655E-01  0.00000000E+00  0.00000000E+00  0.00000000E+00
 -3.17107264E-01 -1.02376060E+00  7.41443342E-03  7.41443342E-03  7.41443342E-03
 -3.17107264E-01 -1.02376060E+00 -7.41443342E-03 -7.41443342E-03  7.41443342E-03
 -3.17107264E-01 -1.02376060E+00 -7.41443342E-03  7.41443342E-03 -7.41443342E-03
 -3.17107264E-01 -1.02376060E+00  7.41443342E-03 -7.41443342E-03 -7.41443342E-03
 -2.21021293E-15 -4.98821975E-14  0.00000000E+00  0.00000000E+00  0.00000000E+00
  1.40292281E-13  0.00000000E+00  0.00000000E+00  0.00000000E+00 -2.83463273E-01
  6.65800726E-01 -3.82337453E-01  0.00000000E+00  0.00000000E+00  0.00000000E+00
 -2.28516315E-15 -3.06922667E-14 -8.51515474E-02  2.00004613E-01 -1.14853065E-01
 -2.28516315E-15 -3.06922667E-14  8.51515474E-02 -2.00004613E-01 -1.14853065E-01
 -2.28516315E-15 -3.06922667E-14  8.51515474E-02  2.00004613E-01  1.14853065E-01
 -2.28516315E-15 -3.06922667E-14 -8.51515474E-02 -2.00004613E-01  1.14853065E-01
 -1.94152765E-15 -4.70392418E-14  0.00000000E+00  0.00000000E+00  0.00000000E+00
  1.25447772E-13  0.00000000E+00  0.00000000E+00  0.00000000E+00  6.05142860E-01
 -5.70850346E-02 -5.48057825E-01  0.00000000E+00  0.00000000E+00  0.00000000E+00
 -5.41594886E-15 -2.56232899E-14  1.81783165E-01 -1.71481793E-02 -1.64634986E-01
 -5.41594886E-15 -2.56232899E-14 -1.81783165E-01  1.71481793E-02 -1.64634986E-01
 -5.41594886E-15 -2.56232899E-14 -1.81783165E-01 -1.71481793E-02  1.64634986E-01
 -5.41594886E-15 -2.56232899E-14  1.81783165E-01  1.71481793E-02  1.64634986E-01
  0.00000000E+00  0.00000000E+00  0.00000000E+00  0.00000000E+00  4.15677039E-14
  0.00000000E+00  0.00000000E+00  0.00000000E+00 -2.28990590E-13  0.00000000E+00
  0.00000000E+00  0.00000000E+00 -2.68067705E-13  0.00000000E+00  0.00000000E+00
  1.40103984E-13 -1.60071520E-14  3.56064107E-01 -3.56064107E-01  1.12731855E-13
  1.40103984E-13 -1.60071520E-14 -3.56064107E-01  3.56064107E-01  1.12731855E-13
 -1.40103984E-13  1.60071520E-14  3.56064107E-01  3.56064107E-01  1.12731855E-13
 -1.40103984E-13  1.60071520E-14 -3.56064107E-01 -3.56064107E-01  1.12731855E-13
  0.00000000E+00  0.00000000E+00  0.00000000E+00  5.55051507E-14  0.00000000E+00
  0.00000000E+00  0.00000000E+00 -3.05370333E-13  0.00000000E+00  0.00000000E+00
  0.00000000E+00  0.00000000E+00  0.00000000E+00 -3.65939511E-13  0.00000000E+00
  1.90809552E-13 -2.31828614E-14  3.56064107E-01  1.53089144E-13 -3.56064107E-01
 -1.90809552E-13  2.31828614E-14  3.56064107E-01  1.53089144E-13  3.56064107E-01
  1.90809552E-13 -2.31828614E-14 -3.56064107E-01  1.53089144E-13  3.56064107E-01
 -1.90809552E-13  2.31828614E-14 -3.56064107E-01  1.53089144E-13 -3.56064107E-01
  0.00000000E+00  0.00000000E+00  4.03853356E-14  0.00000000E+00  0.00000000E+00
  0.00000000E+00 -1.97631952E-13  0.00000000E+00  0.00000000E+00  0.00000000E+00
  0.00000000E+00  0.00000000E+00  0.00000000E+00  0.00000000E+00 -2.31450781E-13
  1.19577754E-13 -1.21159980E-14  9.68996720E-14  3.56064107E-01 -3.56064107E-01
 -1.19577754E-13  1.21159980E-14  9.68996720E-14  3.56064107E-01  3.56064107E-01
 -1.19577754E-13  1.21159980E-14  9.68996720E-14 -3.56064107E-01 -3.56064107E-01
  1.19577754E-13 -1.21159980E-14  9.68996720E-14 -3.56064107E-01  3.56064107E-01
  0.00000000E+00  0.00000000E+00 -1.10191358E-01  0.00000000E+00  0.00000000E+00
  0.00000000E+00  5.78515733E-01  0.00000000E+00  0.00000000E+00  0.00000000E+00
  0.00000000E+00  0.00000000E+00  0.00000000E+00  0.00000000E+00  6.81714090E-01
 -3.54354897E-01  3.94215491E-02 -2.83923007E-01 -3.74425257E-02 -3.74425257E-02
  3.54354897E-01 -3.94215491E-02 -2.83923007E-01 -3.74425257E-02  3.74425257E-02
  3.54354897E-01 -3.94215491E-02 -2.83923007E-01  3.74425257E-02 -3.74425257E-02
 -3.54354897E-01  3.94215491E-02 -2.83923007E-01  3.74425257E-02  3.74425257E-02
  0.00000000E+00  0.00000000E+00  0.00000000E+00 -1.10191358E-01  0.00000000E+00
  0.00000000E+00  0.00000000E+00  5.78515733E-01  0.00000000E+00  0.00000000E+00
  0.00000000E+00  0.00000000E+00  0.00000000E+00  6.81714090E-01  0.00000000E+00
 -3.54354897E-01  3.94215491E-02 -3.74425257E-02 -2.83923007E-01 -3.74425257E-02
  3.54354897E-01 -3.94215491E-02 -3.74425257E-02 -2.83923007E-01  3.74425257E-02
 -3.54354897E-01  3.94215491E-02  3.74425257E-02 -2.83923007E-01  3.74425257E-02
  3.54354897E-01 -3.94215491E-02  3.74425257E-02 -2.83923007E-01 -3.74425257E-02
  0.00000000E+00  0.00000000E+00  0.00000000E+00  0.00000000E+00 -1.10191358E-01
  0.00000000E+00  0.00000000E+00  0.00000000E+00  5.78515733E-01  0.00000000E+00
  0.00000000E+00  0.00000000E+00  6.81714090E-01  0.00000000E+00  0.00000000E+00
 -3.54354897E-01  3.94215491E-02 -3.74425257E-02 -3.74425257E-02 -2.83923007E-01
 -3.54354897E-01  3.94215491E-02  3.74425257E-02  3.74425257E-02 -2.83923007E-01
  3.54354897E-01 -3.94215491E-02 -3.74425257E-02  3.74425257E-02 -2.83923007E-01
  3.54354897E-01 -3.94215491E-02  3.74425257E-02 -3.74425257E-02 -2.83923007E-01
  0.00000000E+00  0.00000000E+00  0.00000000E+00  0.00000000E+00  1.63829329E-01
  0.00000000E+00  0.00000000E+00  0.00000000E+00  6.60759742E-01  0.00000000E+00
  0.00000000E+00  0.00000000E+00 -4.75378572E-01  0.00000000E+00  0.00000000E+00
  3.22321620E-02 -3.08572236E-01  2.76568828E-01  2.76568828E-01 -3.73575673E-01