 Entering Gaussian System, Link 0=/software/sse/easybuild/prefix/software/Gaussian/16.B.01-avx2-nsc1-bdist/g16/g16.orig
 Input=freq-lm.wrap
 Output=freq-lm.log
 Initial command:
 /software/sse/easybuild/prefix/software/Gaussian/16.B.01-avx2-nsc1-bdist/g16/l1.exe "/scratch/local/Gau-127120.inp" -scrdir="/scratch/local/"
 Default is to use a total of  16 processors:
                               16 via shared-memory
                                1 via Linda
 Entering Link 1 = /software/sse/easybuild/prefix/software/Gaussian/16.B.01-avx2-nsc1-bdist/g16/l1.exe PID=    127125.
  
 Copyright (c) 1988-2017, Gaussian, Inc.  All Rights Reserved.
  
 This is part of the Gaussian(R) 16 program.  It is based on
 the Gaussian(R) 09 system (copyright 2009, Gaussian, Inc.),
 the Gaussian(R) 03 system (copyright 2003, Gaussian, Inc.),
 the Gaussian(R) 98 system (copyright 1998, Gaussian, Inc.),
 the Gaussian(R) 94 system (copyright 1995, Gaussian, Inc.),
 the Gaussian 92(TM) system (copyright 1992, Gaussian, Inc.),
 the Gaussian 90(TM) system (copyright 1990, Gaussian, Inc.),
 the Gaussian 88(TM) system (copyright 1988, Gaussian, Inc.),
 the Gaussian 86(TM) system (copyright 1986, Carnegie Mellon
 University), and the Gaussian 82(TM) system (copyright 1983,
 Carnegie Mellon University). Gaussian is a federally registered
 trademark of Gaussian, Inc.
  
 This software contains proprietary and confidential information,
 including trade secrets, belonging to Gaussian, Inc.
  
 This software is provided under written license and may be
 used, copied, transmitted, or stored only in accord with that
 written license.
  
 The following legend is applicable only to US Government
 contracts under FAR:
  
                    RESTRICTED RIGHTS LEGEND
  
 Use, reproduction and disclosure by the US Government is
 subject to restrictions as set forth in subparagraphs (a)
 and (c) of the Commercial Computer Software - Restricted
 Rights clause in FAR 52.227-19.
  
 Gaussian, Inc.
 340 Quinnipiac St., Bldg. 40, Wallingford CT 06492
  
  
 ---------------------------------------------------------------
 Warning -- This program may not be used in any manner that
 competes with the business of Gaussian, Inc. or will provide
 assistance to any competitor of Gaussian, Inc.  The licensee
 of this program is prohibited from giving any competitor of
 Gaussian, Inc. access to this program.  By using this program,
 the user acknowledges that Gaussian, Inc. is engaged in the
 business of creating and licensing software in the field of
 computational chemistry and represents and warrants to the
 licensee that it is not a competitor of Gaussian, Inc. and that
 it will not use this program in any manner prohibited above.
 ---------------------------------------------------------------
  

 Cite this work as:
 Gaussian 16, Revision B.01,
 M. J. Frisch, G. W. Trucks, H. B. Schlegel, G. E. Scuseria, 
 M. A. Robb, J. R. Cheeseman, G. Scalmani, V. Barone, 
 G. A. Petersson, H. Nakatsuji, X. Li, M. Caricato, A. V. Marenich, 
 J. Bloino, B. G. Janesko, R. Gomperts, B. Mennucci, H. P. Hratchian, 
 J. V. Ortiz, A. F. Izmaylov, J. L. Sonnenberg, D. Williams-Young, 
 F. Ding, F. Lipparini, F. Egidi, J. Goings, B. Peng, A. Petrone, 
 T. Henderson, D. Ranasinghe, V. G. Zakrzewski, J. Gao, N. Rega, 
 G. Zheng, W. Liang, M. Hada, M. Ehara, K. Toyota, R. Fukuda, 
 J. Hasegawa, M. Ishida, T. Nakajima, Y. Honda, O. Kitao, H. Nakai, 
 T. Vreven, K. Throssell, J. A. Montgomery, Jr., J. E. Peralta, 
 F. Ogliaro, M. J. Bearpark, J. J. Heyd, E. N. Brothers, K. N. Kudin, 
 V. N. Staroverov, T. A. Keith, R. Kobayashi, J. Normand, 
 K. Raghavachari, A. P. Rendell, J. C. Burant, S. S. Iyengar, 
 J. Tomasi, M. Cossi, J. M. Millam, M. Klene, C. Adamo, R. Cammi, 
 J. W. Ochterski, R. L. Martin, K. Morokuma, O. Farkas, 
 J. B. Foresman, and D. J. Fox, Gaussian, Inc., Wallingford CT, 2016.
 
 ******************************************
 Gaussian 16:  ES64L-G16RevB.01 20-Dec-2017
                10-Aug-2019 
 ******************************************
 %chk=freq.chk
 ----------------------------------------------------------------------
 # freq(intmodes) iop(1/33=3) b3lyp/6-31g(d,p) geom=connectivity iop(7/
 75=-1)
 ----------------------------------------------------------------------
 1/10=4,18=20,30=1,33=3,38=1,57=2/1,3;
 2/9=110,12=2,17=6,18=5,40=1/2;
 3/5=1,6=6,7=101,11=2,25=1,30=1,71=2,74=-5,140=1/1,2,3;
 4//1;
 5/5=2,38=5,98=1/2;
 8/6=4,10=90,11=11/1;
 11/6=1,8=1,9=11,15=111,16=1/1,2,10;
 10/6=1/2;
 6/7=2,8=2,9=2,10=2,28=1/1;
 7/8=21,10=1,25=1,75=-1/1,2,3,16;
 1/10=4,18=20,30=1,33=3/3;
 99//99;
 ONIOM results not found on unit 2.
 ----
 name
 ----
 TstMul:  ICh=     0
 TstMul:  Mul=     1
 TstMul:  ICh=     0
 TstMul:  Mul=     1
 Symbolic Z-matrix:
 Charge =  0 Multiplicity = 1
 C                     0.        0.        1.89679 
 H                     0.        0.        2.96227 
 C                     0.        0.        0.68437 
 C                     0.        0.       -0.68437 
 C                     0.        0.       -1.89679 
 H                     0.        0.       -2.96227 
 
 RdStrC is calling ZToCFu for IStruc=1 NZ=     6.
                                ZToCFu                                
 ---------------------------------------------------------------------
 Center     Atomic      Atomic             Coordinates (Angstroms)
 Number     Number       Type             X           Y           Z
 ---------------------------------------------------------------------
      1          6           0        0.000000    0.000000    1.896791
      2          1           0        0.000000    0.000000    2.962273
      3          6           0        0.000000    0.000000    0.684368
      4          6           0        0.000000    0.000000   -0.684368
      5          6           0        0.000000    0.000000   -1.896791
      6          1           0        0.000000    0.000000   -2.962273
 ---------------------------------------------------------------------
 Connectivity in DoCon:
 I=     1 IAn=  6 IBond, RBType=     2  1.00     3  3.00
 I=     2 IAn=  1 IBond, RBType=     1  1.00
 I=     3 IAn=  6 IBond, RBType=     1  3.00     4  2.00
 I=     4 IAn=  6 IBond, RBType=     3  2.00     5  3.00
 I=     5 IAn=  6 IBond, RBType=     4  3.00     6  1.00
 I=     6 IAn=  1 IBond, RBType=     5  1.00
 After GenITR:
 ITRead=  0  0  0  0  0  0
 MicOpt= -1 -1 -1 -1 -1 -1
 List IsCon N=      6 M=      2:
 I=      1 Vals=      2      1 |      3      3 |
 I=      2 Vals=      1      1 |
 I=      3 Vals=      1      3 |      4      2 |
 I=      4 Vals=      3      2 |      5      3 |
 I=      5 Vals=      4      3 |      6      1 |
 I=      6 Vals=      5      1 |
 Coordinate R1 contains atom 1 which is already in QM block.
 Coordinate R1 contains atom 2 which is already in QM block.
 Coordinate R2 contains atom 1 which is already in QM block.
 Coordinate R2 contains atom 3 which is already in QM block.
 Coordinate R3 contains atom 3 which is already in QM block.
 Coordinate R3 contains atom 4 which is already in QM block.
 Coordinate R4 contains atom 4 which is already in QM block.
 Coordinate R4 contains atom 5 which is already in QM block.
 Coordinate R5 contains atom 5 which is already in QM block.
 Coordinate R5 contains atom 6 which is already in QM block.
 Coordinate L1 contains atom 2 which is already in QM block.
 Coordinate L1 contains atom 1 which is already in QM block.
 Coordinate L1 contains atom 1 which is already in QM block.
 Coordinate L2 contains atom 1 which is already in QM block.
 Coordinate L2 contains atom 3 which is already in QM block.
 Coordinate L2 contains atom 3 which is already in QM block.
 Coordinate L3 contains atom 3 which is already in QM block.
 Coordinate L3 contains atom 4 which is already in QM block.
 Coordinate L3 contains atom 4 which is already in QM block.
 Coordinate L4 contains atom 4 which is already in QM block.
 Coordinate L4 contains atom 5 which is already in QM block.
 Coordinate L4 contains atom 5 which is already in QM block.
 Coordinate L5 contains atom 2 which is already in QM block.
 Coordinate L5 contains atom 1 which is already in QM block.
 Coordinate L5 contains atom 1 which is already in QM block.
 Coordinate L6 contains atom 1 which is already in QM block.
 Coordinate L6 contains atom 3 which is already in QM block.
 Coordinate L6 contains atom 3 which is already in QM block.
 Coordinate L7 contains atom 3 which is already in QM block.
 Coordinate L7 contains atom 4 which is already in QM block.
 Coordinate L7 contains atom 4 which is already in QM block.
 Coordinate L8 contains atom 4 which is already in QM block.
 Coordinate L8 contains atom 5 which is already in QM block.
 Coordinate L8 contains atom 5 which is already in QM block.
 Saved connectivity
 I=     1 IAn=  6 IBond, RBType=     2  1.00     3  3.00
 I=     2 IAn=  1 IBond, RBType=     1  1.00
 I=     3 IAn=  6 IBond, RBType=     1  3.00     4  2.00
 I=     4 IAn=  6 IBond, RBType=     3  2.00     5  3.00
 I=     5 IAn=  6 IBond, RBType=     4  3.00     6  1.00
 I=     6 IAn=  1 IBond, RBType=     5  1.00
 ITRead=  0  0  0  0  0  0
 MicOpt= -1 -1 -1 -1 -1 -1
 NAtoms=      6 NQM=        6 NQMF=       0 NMMI=      0 NMMIF=      0
                NMic=       0 NMicF=      0.
 No MM parameters found.
 Leave Link  101 at Sat Aug 10 16:33:45 2019, MaxMem=  4294967296 cpu:               5.6 elap:               0.4

 GradGradGradGradGradGradGradGradGradGradGradGradGradGradGradGradGradGrad
 Berny optimization.
 GetPCM: File not found, return IValue=0.
 Optmz: redundant internal coordinate code flag= 1
 Initialization pass.
                           ----------------------------
                           !    Initial Parameters    !
                           ! (Angstroms and Degrees)  !
 --------------------------                            --------------------------
 ! Name  Definition              Value          Derivative Info.                !
 --------------------------------------------------------------------------------
 ! R1    R(1,2)                  1.0655         calculate D2E/DX2 analytically  !
 ! R2    R(1,3)                  1.2124         calculate D2E/DX2 analytically  !
 ! R3    R(3,4)                  1.3687         calculate D2E/DX2 analytically  !
 ! R4    R(4,5)                  1.2124         calculate D2E/DX2 analytically  !
 ! R5    R(5,6)                  1.0655         calculate D2E/DX2 analytically  !
 ! A1    L(2,1,3,-1,-1)        180.0            calculate D2E/DX2 analytically  !
 ! A2    L(1,3,4,-1,-1)        180.0            calculate D2E/DX2 analytically  !
 ! A3    L(3,4,5,-1,-1)        180.0            calculate D2E/DX2 analytically  !
 ! A4    L(4,5,6,-1,-1)        180.0            calculate D2E/DX2 analytically  !
 ! A5    L(2,1,3,-2,-2)        180.0            calculate D2E/DX2 analytically  !
 ! A6    L(1,3,4,-2,-2)        180.0            calculate D2E/DX2 analytically  !
 ! A7    L(3,4,5,-2,-2)        180.0            calculate D2E/DX2 analytically  !
 ! A8    L(4,5,6,-2,-2)        180.0            calculate D2E/DX2 analytically  !
 --------------------------------------------------------------------------------
 Maximum allowed force set to 1.00D+20.
 Trust Radius=3.00D-01 FncErr=1.00D-07 GrdErr=1.00D-07 EigMax=2.50D+02 EigMin=1.00D-04
 Number of steps in this run=      2 maximum allowed number of steps=      2.
 GradGradGradGradGradGradGradGradGradGradGradGradGradGradGradGradGradGrad

 Leave Link  103 at Sat Aug 10 16:33:45 2019, MaxMem=  4294967296 cpu:               0.3 elap:               0.1
                          Input orientation:                          
 ---------------------------------------------------------------------
 Center     Atomic      Atomic             Coordinates (Angstroms)
 Number     Number       Type             X           Y           Z
 ---------------------------------------------------------------------
      1          6           0        0.000000    0.000000    1.896791
      2          1           0        0.000000    0.000000    2.962273
      3          6           0        0.000000    0.000000    0.684368
      4          6           0        0.000000    0.000000   -0.684368
      5          6           0        0.000000    0.000000   -1.896791
      6          1           0        0.000000    0.000000   -2.962273
 ---------------------------------------------------------------------
                    Distance matrix (angstroms):
                    1          2          3          4          5
     1  C    0.000000
     2  H    1.065482   0.000000
     3  C    1.212423   2.277905   0.000000
     4  C    2.581159   3.646641   1.368736   0.000000
     5  C    3.793582   4.859064   2.581159   1.212423   0.000000
     6  H    4.859064   5.924546   3.646641   2.277905   1.065482
                    6
     6  H    0.000000
 Stoichiometry    C4H2
 Framework group  D*H[C*(HCC.CCH)]
 Deg. of freedom     3
 Full point group                 D*H     NOp   8
 Largest Abelian subgroup         D2H     NOp   8
 Largest concise Abelian subgroup C2      NOp   2
                         Standard orientation:                         
 ---------------------------------------------------------------------
 Center     Atomic      Atomic             Coordinates (Angstroms)
 Number     Number       Type             X           Y           Z
 ---------------------------------------------------------------------
      1          6           0        0.000000    0.000000    1.896791
      2          1           0        0.000000    0.000000    2.962273
      3          6           0        0.000000    0.000000    0.684368
      4          6           0        0.000000    0.000000   -0.684368
      5          6           0        0.000000    0.000000   -1.896791
      6          1           0        0.000000    0.000000   -2.962273
 ---------------------------------------------------------------------
 Rotational constants (GHZ):           0.0000000           4.3840909           4.3840909
 Standard basis: 6-31G(d,p) (6D, 7F)
 There are    19 symmetry adapted cartesian basis functions of AG  symmetry.
 There are     2 symmetry adapted cartesian basis functions of B1G symmetry.
 There are     7 symmetry adapted cartesian basis functions of B2G symmetry.
 There are     7 symmetry adapted cartesian basis functions of B3G symmetry.
 There are     2 symmetry adapted cartesian basis functions of AU  symmetry.
 There are    19 symmetry adapted cartesian basis functions of B1U symmetry.
 There are     7 symmetry adapted cartesian basis functions of B2U symmetry.
 There are     7 symmetry adapted cartesian basis functions of B3U symmetry.
 There are    19 symmetry adapted basis functions of AG  symmetry.
 There are     2 symmetry adapted basis functions of B1G symmetry.
 There are     7 symmetry adapted basis functions of B2G symmetry.
 There are     7 symmetry adapted basis functions of B3G symmetry.
 There are     2 symmetry adapted basis functions of AU  symmetry.
 There are    19 symmetry adapted basis functions of B1U symmetry.
 There are     7 symmetry adapted basis functions of B2U symmetry.
 There are     7 symmetry adapted basis functions of B3U symmetry.
    70 basis functions,   126 primitive gaussians,    70 cartesian basis functions
    13 alpha electrons       13 beta electrons
       nuclear repulsion energy        77.0114867142 Hartrees.
 NAtoms=    6 NActive=    6 NUniq=    3 SFac= 4.00D+00 NAtFMM=   60 NAOKFM=F Big=F
 Integral buffers will be    131072 words long.
 Raffenetti 2 integral format.
 Two-electron integral symmetry is turned on.
 One-electron integrals computed using PRISM.
 NBasis=    70 RedAO= T EigKep=  8.81D-05  NBF=    19     2     7     7     2    19     7     7
 NBsUse=    70 1.00D-06 EigRej= -1.00D+00 NBFU=    19     2     7     7     2    19     7     7
 ExpMin= 1.61D-01 ExpMax= 3.05D+03 ExpMxC= 4.57D+02 IAcc=3 IRadAn=         5 AccDes= 0.00D+00
 Harris functional with IExCor=  402 and IRadAn=       5 diagonalized for initial guess.
 HarFok:  IExCor=  402 AccDes= 0.00D+00 IRadAn=         5 IDoV= 1 UseB2=F ITyADJ=14
 ICtDFT=  3500011 ScaDFX=  1.000000  1.000000  1.000000  1.000000
 FoFCou: FMM=F IPFlag=           0 FMFlag=      100000 FMFlg1=           0
         NFxFlg=           0 DoJE=T BraDBF=F KetDBF=T FulRan=T
         wScrn=  0.000000 ICntrl=       500 IOpCl=  0 I1Cent=   200000004 NGrid=           0
         NMat0=    1 NMatS0=      1 NMatT0=    0 NMatD0=    1 NMtDS0=    0 NMtDT0=    0
 Petite list used in FoFCou.
 Initial guess orbital symmetries:
       Occupied  (SGG) (SGU) (SGG) (SGU) (SGG) (SGU) (SGG) (SGU)
                 (SGG) (PIU) (PIU) (PIG) (PIG)
       Virtual   (PIU) (PIU) (PIG) (PIG) (SGU) (SGG) (SGU) (SGG)
                 (SGU) (SGG) (PIU) (PIU) (PIG) (PIG) (PIU) (PIU)
                 (SGU) (PIG) (PIG) (SGG) (SGU) (SGG) (SGG) (SGU)
                 (PIU) (PIU) (DLTG) (DLTG) (SGU) (DLTU) (DLTU)
                 (PIG) (PIG) (SGG) (DLTG) (DLTG) (SGU) (PIU) (PIU)
                 (DLTU) (DLTU) (SGG) (PIG) (PIG) (SGU) (PIU) (PIU)
                 (SGG) (SGU) (PIG) (PIG) (SGG) (SGU) (SGG) (SGU)
                 (SGG) (SGU)
 The electronic state of the initial guess is 1-SGG.
 Keep R1 ints in memory in symmetry-blocked form, NReq=17393707.
 Requested convergence on RMS density matrix=1.00D-08 within 128 cycles.
 Requested convergence on MAX density matrix=1.00D-06.
 Requested convergence on             energy=1.00D-06.
 No special actions if energy rises.
 Integral accuracy reduced to 1.0D-05 until final iterations.
 Initial convergence to 1.0D-05 achieved.  Increase integral accuracy.
 SCF Done:  E(RB3LYP) =  -153.485576104     A.U. after   11 cycles
            NFock= 11  Conv=0.23D-08     -V/T= 2.0099
 DoSCS=F DFT=T ScalE2(SS,OS)=  1.000000  1.000000
 Range of M.O.s used for correlation:     1    70
 NBasis=    70 NAE=    13 NBE=    13 NFC=     0 NFV=     0
 NROrb=     70 NOA=    13 NOB=    13 NVA=    57 NVB=    57

 **** Warning!!: The largest alpha MO coefficient is  0.48268533D+02

 Symmetrizing basis deriv contribution to polar:
 IMax=3 JMax=2 DiffMx= 0.00D+00
 G2DrvN: will do     7 centers at a time, making    1 passes.
 Calling FoFCou, ICntrl=  3107 FMM=F I1Cent=   0 AccDes= 0.00D+00.
 End of G2Drv F.D. properties file   721 does not exist.
 End of G2Drv F.D. properties file   722 does not exist.
 End of G2Drv F.D. properties file   788 does not exist.
          IDoAtm=111111
          Differentiating once with respect to electric field.
                with respect to dipole field.
          Differentiating once with respect to nuclear coordinates.
 Keep R1 ints in memory in symmetry-blocked form, NReq=17343218.
          There are    12 degrees of freedom in the 1st order CPHF.  IDoFFX=4 NUNeed=    12.
     12 vectors produced by pass  0 Test12= 6.18D-15 8.33D-09 XBig12= 1.70D+02 9.01D+00.
 AX will form    12 AO Fock derivatives at one time.
     12 vectors produced by pass  1 Test12= 6.18D-15 8.33D-09 XBig12= 5.61D+01 3.34D+00.
     12 vectors produced by pass  2 Test12= 6.18D-15 8.33D-09 XBig12= 1.29D+00 4.52D-01.
     12 vectors produced by pass  3 Test12= 6.18D-15 8.33D-09 XBig12= 8.09D-03 2.75D-02.
     12 vectors produced by pass  4 Test12= 6.18D-15 8.33D-09 XBig12= 2.55D-05 1.28D-03.
     12 vectors produced by pass  5 Test12= 6.18D-15 8.33D-09 XBig12= 5.30D-08 5.92D-05.
      6 vectors produced by pass  6 Test12= 6.18D-15 8.33D-09 XBig12= 6.87D-11 1.84D-06.
      2 vectors produced by pass  7 Test12= 6.18D-15 8.33D-09 XBig12= 9.18D-14 6.96D-08.
 InvSVY:  IOpt=1 It=  1 EMax= 3.55D-15
 Solved reduced A of dimension    80 with    12 vectors.
 Isotropic polarizability for W=    0.000000       35.85 Bohr**3.
 End of Minotr F.D. properties file   721 does not exist.
 End of Minotr F.D. properties file   722 does not exist.
 End of Minotr F.D. properties file   788 does not exist.

 **********************************************************************

            Population analysis using the SCF Density.

 **********************************************************************

 Orbital symmetries:
       Occupied  (SGG) (SGU) (SGG) (SGU) (SGG) (SGU) (SGG) (SGU)
                 (SGG) (PIU) (PIU) (PIG) (PIG)
       Virtual   (PIU) (PIU) (SGU) (SGG) (PIG) (PIG) (SGU) (SGU)
                 (SGG) (SGG) (PIU) (PIU) (PIG) (PIG) (PIU) (PIU)
                 (SGU) (SGG) (PIG) (PIG) (SGU) (SGG) (SGG) (SGU)
                 (PIU) (PIU) (SGU) (DLTG) (DLTG) (DLTU) (DLTU)
                 (SGG) (PIG) (PIG) (SGU) (DLTG) (DLTG) (PIU) (PIU)
                 (DLTU) (DLTU) (SGG) (PIG) (PIG) (SGU) (PIU) (PIU)
                 (SGG) (SGU) (PIG) (PIG) (SGG) (SGU) (SGG) (SGU)
                 (SGG) (SGU)
 The electronic state is 1-SGG.
 Alpha  occ. eigenvalues --  -10.21548 -10.21487 -10.20765 -10.20764  -0.79860
 Alpha  occ. eigenvalues --   -0.74133  -0.62825  -0.53620  -0.51129  -0.35049
 Alpha  occ. eigenvalues --   -0.35049  -0.25829  -0.25829
 Alpha virt. eigenvalues --   -0.02147  -0.02147   0.10736   0.11837   0.16258
 Alpha virt. eigenvalues --    0.16258   0.26764   0.41624   0.43033   0.43851
 Alpha virt. eigenvalues --    0.50328   0.50328   0.56030   0.56030   0.66825
 Alpha virt. eigenvalues --    0.66825   0.71462   0.74557   0.78272   0.78272
 Alpha virt. eigenvalues --    0.92900   1.02113   1.10507   1.21334   1.29576
 Alpha virt. eigenvalues --    1.29576   1.46319   1.46470   1.46470   1.57774
 Alpha virt. eigenvalues --    1.57774   1.61072   1.65115   1.65115   1.82386
 Alpha virt. eigenvalues --    1.85160   1.85160   1.95087   1.95087   2.01681
 Alpha virt. eigenvalues --    2.01681   2.19431   2.29290   2.29290   2.42729
 Alpha virt. eigenvalues --    2.72823   2.72823   2.82063   3.19220   3.20704
 Alpha virt. eigenvalues --    3.20704   3.60610   3.81680   4.12187   4.62848
 Alpha virt. eigenvalues --    4.87177   5.89577
          Condensed to atoms (all electrons):
               1          2          3          4          5          6
     1  C    6.832351   0.325193   0.701678  -0.920804  -0.069900   0.000040
     2  H    0.325193   0.409598   0.059732   0.005039   0.000040   0.000001
     3  C    0.701678   0.059732   6.347764  -0.861571  -0.920804   0.005039
     4  C   -0.920804   0.005039  -0.861571   6.347764   0.701678   0.059732
     5  C   -0.069900   0.000040  -0.920804   0.701678   6.832351   0.325193
     6  H    0.000040   0.000001   0.005039   0.059732   0.325193   0.409598
 Mulliken charges:
               1
     1  C   -0.868558
     2  H    0.200397
     3  C    0.668161
     4  C    0.668161
     5  C   -0.868558
     6  H    0.200397
 Sum of Mulliken charges =   0.00000
 Mulliken charges with hydrogens summed into heavy atoms:
               1
     1  C   -0.668161
     3  C    0.668161
     4  C    0.668161
     5  C   -0.668161
 APT charges:
               1
     1  C   -0.311531
     2  H    0.236079
     3  C    0.075452
     4  C    0.075452
     5  C   -0.311531
     6  H    0.236079
 Sum of APT charges =   0.00000
 APT charges with hydrogens summed into heavy atoms:
               1
     1  C   -0.075452
     3  C    0.075452
     4  C    0.075452
     5  C   -0.075452
 Electronic spatial extent (au):  <R**2>=            280.6801
 Charge=              0.0000 electrons
 Dipole moment (field-independent basis, Debye):
    X=             -0.0000    Y=              0.0000    Z=             -0.0000  Tot=              0.0000
 Quadrupole moment (field-independent basis, Debye-Ang):
   XX=            -23.7010   YY=            -23.7010   ZZ=            -11.4574
   XY=             -0.0000   XZ=              0.0000   YZ=              0.0000
 Traceless Quadrupole moment (field-independent basis, Debye-Ang):
   XX=             -4.0812   YY=             -4.0812   ZZ=              8.1624
   XY=             -0.0000   XZ=              0.0000   YZ=              0.0000
 Octapole moment (field-independent basis, Debye-Ang**2):
  XXX=             -0.0000  YYY=              0.0000  ZZZ=             -0.0000  XYY=             -0.0000
  XXY=              0.0000  XXZ=              0.0000  XZZ=              0.0000  YZZ=             -0.0000
  YYZ=              0.0000  XYZ=              0.0000
 Hexadecapole moment (field-independent basis, Debye-Ang**3):
 XXXX=            -24.1138 YYYY=            -24.1138 ZZZZ=           -201.6707 XXXY=             -0.0000
 XXXZ=              0.0000 YYYX=             -0.0000 YYYZ=              0.0000 ZZZX=              0.0000
 ZZZY=              0.0000 XXYY=             -8.0379 XXZZ=            -65.7358 YYZZ=            -65.7358
 XXYZ=              0.0000 YYXZ=              0.0000 ZZXY=             -0.0000
 N-N= 7.701148671424D+01 E-N=-5.094360862503D+02  KE= 1.519847685385D+02
 Symmetry AG   KE= 7.310594455267D+01
 Symmetry B1G  KE= 4.512252532373D-34
 Symmetry B2G  KE= 2.363254183698D+00
 Symmetry B3G  KE= 2.363254183698D+00
 Symmetry AU   KE= 4.736688324499D-34
 Symmetry B1U  KE= 6.986186618092D+01
 Symmetry B2U  KE= 2.145224718775D+00
 Symmetry B3U  KE= 2.145224718775D+00
  Exact polarizability:  13.569  -0.000  13.569  -0.000   0.000  80.424
 Approx polarizability:  17.539  -0.000  17.539  -0.000  -0.000 173.423
 Calling FoFJK, ICntrl=    100127 FMM=F ISym2X=1 I1Cent= 0 IOpClX= 0 NMat=1 NMatS=1 NMatT=0.
 Full mass-weighted force constant matrix:
 Low frequencies ---   -3.2922   -3.2922   -0.0015   -0.0015   -0.0013  272.8174
 Low frequencies ---  272.8174  618.3677  618.3677
 Diagonal vibrational polarizability:
        8.5590779       8.5590779       0.4039084
 Harmonic frequencies (cm**-1), IR intensities (KM/Mole), Raman scattering
 activities (A**4/AMU), depolarization ratios for plane and unpolarized
 incident light, reduced masses (AMU), force constants (mDyne/A),
 and normal coordinates:
                      1                      2                      3
                     PIU                    PIU                    PIU
 Frequencies --    272.8174               272.8174               618.3677
 Red. masses --      3.5384                 3.5384                 1.3222
 Frc consts  --      0.1552                 0.1552                 0.2979
 IR Inten    --      5.1047                 5.1047                95.3901
  Atom  AN      X      Y      Z        X      Y      Z        X      Y      Z
     1   6    -0.21   0.00  -0.00    -0.00  -0.21   0.00    -0.11   0.00  -0.00
     2   1    -0.62   0.00  -0.00    -0.00  -0.62   0.00     0.70  -0.00   0.00
     3   6     0.26  -0.00  -0.00     0.00   0.26  -0.00     0.05  -0.00   0.00
     4   6     0.26  -0.00   0.00     0.00   0.26  -0.00     0.05  -0.00   0.00
     5   6    -0.21   0.00   0.00    -0.00  -0.21   0.00    -0.11   0.00  -0.00
     6   1    -0.62   0.00   0.00    -0.00  -0.62   0.00     0.70  -0.00   0.00
                      4                      5                      6
                     PIU                    PIG                    PIG
 Frequencies --    618.3677               620.1895               620.1895
 Red. masses --      1.3222                 1.2496                 1.2496
 Frc consts  --      0.2979                 0.2832                 0.2832
 IR Inten    --     95.3901                 0.0000                 0.0000
  Atom  AN      X      Y      Z        X      Y      Z        X      Y      Z
     1   6    -0.00  -0.11  -0.00    -0.06  -0.00   0.00     0.00  -0.06  -0.00
     2   1     0.00   0.70  -0.00     0.70   0.00  -0.00    -0.00   0.70  -0.00
     3   6     0.00   0.05  -0.00    -0.09  -0.00  -0.00     0.00  -0.09  -0.00
     4   6     0.00   0.05   0.00     0.09   0.00   0.00    -0.00   0.09   0.00
     5   6    -0.00  -0.11   0.00     0.06   0.00  -0.00    -0.00   0.06   0.00
     6   1     0.00   0.70  -0.00    -0.70  -0.00   0.00     0.00  -0.70   0.00
                      7                      8                      9
                     PIG                    PIG                    SGG
 Frequencies --    739.7706               739.7706               924.6957
 Red. masses --      7.3605                 7.3605                 6.9876
 Frc consts  --      2.3733                 2.3733                 3.5203
 IR Inten    --      0.0000                 0.0000                 0.0000
  Atom  AN      X      Y      Z        X      Y      Z        X      Y      Z
     1   6    -0.00  -0.23   0.00    -0.23   0.00   0.00     0.00  -0.00   0.44
     2   1     0.00   0.46   0.00     0.46  -0.00   0.00    -0.00   0.00   0.48
     3   6     0.00   0.48  -0.00     0.48  -0.00   0.00    -0.00  -0.00   0.28
     4   6    -0.00  -0.48   0.00    -0.48   0.00  -0.00     0.00   0.00  -0.28
     5   6     0.00   0.23  -0.00     0.23  -0.00  -0.00    -0.00   0.00  -0.44
     6   1    -0.00  -0.46  -0.00    -0.46   0.00  -0.00     0.00  -0.00  -0.48
                     10                     11                     12
                     SGU                    SGG                    SGG
 Frequencies --   2126.9322              2300.5520              3488.1295
 Red. masses --      5.7454                 6.7443                 1.1527
 Frc consts  --     15.3136                21.0304                 8.2634
 IR Inten    --      0.6387                 0.0000                 0.0000
  Atom  AN      X      Y      Z        X      Y      Z        X      Y      Z
     1   6     0.00  -0.00  -0.31    -0.00  -0.00  -0.25    -0.00  -0.00  -0.08
     2   1    -0.00  -0.00  -0.53     0.00  -0.00  -0.49     0.00   0.00   0.70
     3   6    -0.00   0.00   0.35     0.00   0.00   0.45     0.00   0.00   0.02
     4   6    -0.00  -0.00   0.35    -0.00  -0.00  -0.45    -0.00  -0.00  -0.02
     5   6     0.00  -0.00  -0.31     0.00  -0.00   0.25     0.00   0.00   0.08
     6   1    -0.00  -0.00  -0.53    -0.00  -0.00   0.49    -0.00  -0.00  -0.70
                     13
                     SGU
 Frequencies --   3490.2105
 Red. masses --      1.1562
 Frc consts  --      8.2984
 IR Inten    --    181.1123
  Atom  AN      X      Y      Z
     1   6     0.00  -0.00  -0.08
     2   1    -0.00   0.00   0.70
     3   6    -0.00   0.00   0.02
     4   6    -0.00  -0.00   0.02
     5   6     0.00   0.00  -0.08
     6   1    -0.00  -0.00   0.70

 -------------------
 - Thermochemistry -
 -------------------
 Temperature   298.150 Kelvin.  Pressure   1.00000 Atm.
 Atom     1 has atomic number  6 and mass  12.00000
 Atom     2 has atomic number  1 and mass   1.00783
 Atom     3 has atomic number  6 and mass  12.00000
 Atom     4 has atomic number  6 and mass  12.00000
 Atom     5 has atomic number  6 and mass  12.00000
 Atom     6 has atomic number  1 and mass   1.00783
 Molecular mass:    50.01565 amu.
 Principal axes and moments of inertia in atomic units:
                           1         2         3
     Eigenvalues --     0.00000 411.65689 411.65689
           X           -0.00000   1.00000  -0.00000
           Y            0.00000   0.00000   1.00000
           Z            1.00000   0.00000  -0.00000
 This molecule is a prolate symmetric top.
 Rotational symmetry number  2.
 Rotational temperature (Kelvin)      0.21040
 Rotational constant (GHZ):           4.384091
 Zero-point vibrational energy     100682.6 (Joules/Mol)
                                   24.06371 (Kcal/Mol)
 Warning -- explicit consideration of   6 degrees of freedom as
           vibrations may cause significant error
 Vibrational temperatures:    392.52   392.52   889.69   889.69   892.31
          (Kelvin)            892.31  1064.36  1064.36  1330.43  3060.18
                             3309.98  5018.64  5021.63
 
 Zero-point correction=                           0.038348 (Hartree/Particle)
 Thermal correction to Energy=                    0.042463
 Thermal correction to Enthalpy=                  0.043407
 Thermal correction to Gibbs Free Energy=         0.015772
 Sum of electronic and zero-point Energies=           -153.447228
 Sum of electronic and thermal Energies=              -153.443114
 Sum of electronic and thermal Enthalpies=            -153.442169
 Sum of electronic and thermal Free Energies=         -153.469804
 
                     E (Thermal)             CV                S
                      KCal/Mol        Cal/Mol-Kelvin    Cal/Mol-Kelvin
 Total                   26.646             14.368             58.162
 Electronic               0.000              0.000              0.000
 Translational            0.889              2.981             37.653
 Rotational               0.592              1.987             15.030
 Vibrational             25.164              9.400              5.480
 Vibration     1          0.676              1.723              1.578
 Vibration     2          0.676              1.723              1.578
 Vibration     3          0.978              0.993              0.419
 Vibration     4          0.978              0.993              0.419
 Vibration     5          0.980              0.989              0.416
 Vibration     6          0.980              0.989              0.416
                       Q            Log10(Q)             Ln(Q)
 Total Bot       0.556342D-07         -7.254658        -16.704468
 Total V=0       0.242195D+11         10.384165         23.910423
 Vib (Bot)       0.564777D-17        -17.248123        -39.715272
 Vib (Bot)    1  0.707369D+00         -0.150354         -0.346203
 Vib (Bot)    2  0.707369D+00         -0.150354         -0.346203
 Vib (Bot)    3  0.236902D+00         -0.625432         -1.440111
 Vib (Bot)    4  0.236902D+00         -0.625432         -1.440111
 Vib (Bot)    5  0.235753D+00         -0.627544         -1.444973
 Vib (Bot)    6  0.235753D+00         -0.627544         -1.444973
 Vib (V=0)       0.245867D+01          0.390700          0.899619
 Vib (V=0)    1  0.136624D+01          0.135527          0.312062
 Vib (V=0)    2  0.136624D+01          0.135527          0.312062
 Vib (V=0)    3  0.105328D+01          0.022545          0.051912
 Vib (V=0)    4  0.105328D+01          0.022545          0.051912
 Vib (V=0)    5  0.105279D+01          0.022343          0.051446
 Vib (V=0)    6  0.105279D+01          0.022343          0.051446
 Electronic      0.100000D+01          0.000000          0.000000
 Translational   0.139031D+08          7.143113         16.447625
 Rotational      0.708521D+03          2.850352          6.563179
                           ----------------------------
                           ! Normal Mode     1        !
 --------------------------                            --------------------------
 ! Name  Definition              Value          Relative Weight (%)             !
 --------------------------------------------------------------------------------
 ! R1    R(1,2)                  0.0                     0.0                    !
 ! R2    R(1,3)                  0.0                     0.0                    !
 ! R3    R(3,4)                  0.0                     0.0                    !
 ! R4    R(4,5)                  0.0                     0.0                    !
 ! R5    R(5,6)                  0.0                     0.0                    !
 ! A1    L(2,1,3,-1,-1)          0.0                     0.0                    !
 ! A2    L(1,3,4,-1,-1)         -0.0002                  0.1                    !
 ! A3    L(3,4,5,-1,-1)         -0.0002                  0.1                    !
 ! A4    L(4,5,6,-1,-1)          0.0                     0.0                    !
 ! A5    L(2,1,3,-2,-2)          0.0056                  1.3                    !
 ! A6    L(1,3,4,-2,-2)         -0.2082                 48.6                    !
 ! A7    L(3,4,5,-2,-2)         -0.2082                 48.6                    !
 ! A8    L(4,5,6,-2,-2)          0.0056                  1.3                    !
 --------------------------------------------------------------------------------
                           ----------------------------
                           ! Normal Mode     2        !
 --------------------------                            --------------------------
 ! Name  Definition              Value          Relative Weight (%)             !
 --------------------------------------------------------------------------------
 ! R1    R(1,2)                  0.0                     0.0                    !
 ! R2    R(1,3)                  0.0                     0.0                    !
 ! R3    R(3,4)                  0.0                     0.0                    !
 ! R4    R(4,5)                  0.0                     0.0                    !
 ! R5    R(5,6)                  0.0                     0.0                    !
 ! A1    L(2,1,3,-1,-1)         -0.0056                  1.3                    !
 ! A2    L(1,3,4,-1,-1)          0.2082                 48.6                    !
 ! A3    L(3,4,5,-1,-1)          0.2082                 48.6                    !
 ! A4    L(4,5,6,-1,-1)         -0.0056                  1.3                    !
 ! A5    L(2,1,3,-2,-2)          0.0                     0.0                    !
 ! A6    L(1,3,4,-2,-2)         -0.0002                  0.1                    !
 ! A7    L(3,4,5,-2,-2)         -0.0002                  0.1                    !
 ! A8    L(4,5,6,-2,-2)          0.0                     0.0                    !
 --------------------------------------------------------------------------------
                           ----------------------------
                           ! Normal Mode     3        !
 --------------------------                            --------------------------
 ! Name  Definition              Value          Relative Weight (%)             !
 --------------------------------------------------------------------------------
 ! R1    R(1,2)                  0.0                     0.0                    !
 ! R2    R(1,3)                  0.0                     0.0                    !
 ! R3    R(3,4)                  0.0                     0.0                    !
 ! R4    R(4,5)                  0.0                     0.0                    !
 ! R5    R(5,6)                  0.0                     0.0                    !
 ! A1    L(2,1,3,-1,-1)          0.0                     0.0                    !
 ! A2    L(1,3,4,-1,-1)          0.0                     0.0                    !
 ! A3    L(3,4,5,-1,-1)          0.0                     0.0                    !
 ! A4    L(4,5,6,-1,-1)          0.0                     0.0                    !
 ! A5    L(2,1,3,-2,-2)          0.4693                 43.6                    !
 ! A6    L(1,3,4,-2,-2)         -0.0692                  6.4                    !
 ! A7    L(3,4,5,-2,-2)         -0.0692                  6.4                    !
 ! A8    L(4,5,6,-2,-2)          0.4693                 43.6                    !
 --------------------------------------------------------------------------------
                           ----------------------------
                           ! Normal Mode     4        !
 --------------------------                            --------------------------
 ! Name  Definition              Value          Relative Weight (%)             !
 --------------------------------------------------------------------------------
 ! R1    R(1,2)                  0.0                     0.0                    !
 ! R2    R(1,3)                  0.0                     0.0                    !
 ! R3    R(3,4)                  0.0                     0.0                    !
 ! R4    R(4,5)                  0.0                     0.0                    !
 ! R5    R(5,6)                  0.0                     0.0                    !
 ! A1    L(2,1,3,-1,-1)         -0.4693                 43.6                    !
 ! A2    L(1,3,4,-1,-1)          0.0692                  6.4                    !
 ! A3    L(3,4,5,-1,-1)          0.0692                  6.4                    !
 ! A4    L(4,5,6,-1,-1)         -0.4693                 43.6                    !
 ! A5    L(2,1,3,-2,-2)          0.0                     0.0                    !
 ! A6    L(1,3,4,-2,-2)          0.0                     0.0                    !
 ! A7    L(3,4,5,-2,-2)          0.0                     0.0                    !
 ! A8    L(4,5,6,-2,-2)          0.0                     0.0                    !
 --------------------------------------------------------------------------------
                           ----------------------------
                           ! Normal Mode     5        !
 --------------------------                            --------------------------
 ! Name  Definition              Value          Relative Weight (%)             !
 --------------------------------------------------------------------------------
 ! R1    R(1,2)                  0.0                     0.0                    !
 ! R2    R(1,3)                  0.0                     0.0                    !
 ! R3    R(3,4)                  0.0                     0.0                    !
 ! R4    R(4,5)                  0.0                     0.0                    !
 ! R5    R(5,6)                  0.0                     0.0                    !
 ! A1    L(2,1,3,-1,-1)          0.0                     0.0                    !
 ! A2    L(1,3,4,-1,-1)          0.0                     0.0                    !
 ! A3    L(3,4,5,-1,-1)          0.0                     0.0                    !
 ! A4    L(4,5,6,-1,-1)          0.0                     0.0                    !
 ! A5    L(2,1,3,-2,-2)          0.3669                 41.4                    !
 ! A6    L(1,3,4,-2,-2)          0.0767                  8.6                    !
 ! A7    L(3,4,5,-2,-2)         -0.0767                  8.6                    !
 ! A8    L(4,5,6,-2,-2)         -0.3669                 41.4                    !
 --------------------------------------------------------------------------------
                           ----------------------------
                           ! Normal Mode     6        !
 --------------------------                            --------------------------
 ! Name  Definition              Value          Relative Weight (%)             !
 --------------------------------------------------------------------------------
 ! R1    R(1,2)                  0.0                     0.0                    !
 ! R2    R(1,3)                  0.0                     0.0                    !
 ! R3    R(3,4)                  0.0                     0.0                    !
 ! R4    R(4,5)                  0.0                     0.0                    !
 ! R5    R(5,6)                  0.0                     0.0                    !
 ! A1    L(2,1,3,-1,-1)         -0.3669                 41.4                    !
 ! A2    L(1,3,4,-1,-1)         -0.0767                  8.6                    !
 ! A3    L(3,4,5,-1,-1)          0.0767                  8.6                    !
 ! A4    L(4,5,6,-1,-1)          0.3669                 41.4                    !
 ! A5    L(2,1,3,-2,-2)          0.0                     0.0                    !
 ! A6    L(1,3,4,-2,-2)          0.0                     0.0                    !
 ! A7    L(3,4,5,-2,-2)          0.0                     0.0                    !
 ! A8    L(4,5,6,-2,-2)          0.0                     0.0                    !
 --------------------------------------------------------------------------------
                           ----------------------------
                           ! Normal Mode     7        !
 --------------------------                            --------------------------
 ! Name  Definition              Value          Relative Weight (%)             !
 --------------------------------------------------------------------------------
 ! R1    R(1,2)                  0.0                     0.0                    !
 ! R2    R(1,3)                  0.0                     0.0                    !
 ! R3    R(3,4)                  0.0                     0.0                    !
 ! R4    R(4,5)                  0.0                     0.0                    !
 ! R5    R(5,6)                  0.0                     0.0                    !
 ! A1    L(2,1,3,-1,-1)         -0.6583                 24.5                    !
 ! A2    L(1,3,4,-1,-1)          0.6875                 25.5                    !
 ! A3    L(3,4,5,-1,-1)         -0.6875                 25.5                    !
 ! A4    L(4,5,6,-1,-1)          0.6583                 24.5                    !
 ! A5    L(2,1,3,-2,-2)          0.0                     0.0                    !
 ! A6    L(1,3,4,-2,-2)          0.0                     0.0                    !
 ! A7    L(3,4,5,-2,-2)          0.0                     0.0                    !
 ! A8    L(4,5,6,-2,-2)          0.0                     0.0                    !
 --------------------------------------------------------------------------------
                           ----------------------------
                           ! Normal Mode     8        !
 --------------------------                            --------------------------
 ! Name  Definition              Value          Relative Weight (%)             !
 --------------------------------------------------------------------------------
 ! R1    R(1,2)                  0.0                     0.0                    !
 ! R2    R(1,3)                  0.0                     0.0                    !
 ! R3    R(3,4)                  0.0                     0.0                    !
 ! R4    R(4,5)                  0.0                     0.0                    !
 ! R5    R(5,6)                  0.0                     0.0                    !
 ! A1    L(2,1,3,-1,-1)          0.0                     0.0                    !
 ! A2    L(1,3,4,-1,-1)          0.0                     0.0                    !
 ! A3    L(3,4,5,-1,-1)          0.0                     0.0                    !
 ! A4    L(4,5,6,-1,-1)          0.0                     0.0                    !
 ! A5    L(2,1,3,-2,-2)          0.6583                 24.5                    !
 ! A6    L(1,3,4,-2,-2)         -0.6875                 25.5                    !
 ! A7    L(3,4,5,-2,-2)          0.6875                 25.5                    !
 ! A8    L(4,5,6,-2,-2)         -0.6583                 24.5                    !
 --------------------------------------------------------------------------------
                           ----------------------------
                           ! Normal Mode     9        !
 --------------------------                            --------------------------
 ! Name  Definition              Value          Relative Weight (%)             !
 --------------------------------------------------------------------------------
 ! R1    R(1,2)                  0.0403                  4.2                    !
 ! R2    R(1,3)                  0.1529                 16.0                    !
 ! R3    R(3,4)                  0.5687                 59.5                    !
 ! R4    R(4,5)                  0.1529                 16.0                    !
 ! R5    R(5,6)                  0.0403                  4.2                    !
 ! A1    L(2,1,3,-1,-1)          0.0                     0.0                    !
 ! A2    L(1,3,4,-1,-1)          0.0                     0.0                    !
 ! A3    L(3,4,5,-1,-1)          0.0                     0.0                    !
 ! A4    L(4,5,6,-1,-1)          0.0                     0.0                    !
 ! A5    L(2,1,3,-2,-2)          0.0                     0.0                    !
 ! A6    L(1,3,4,-2,-2)          0.0                     0.0                    !
 ! A7    L(3,4,5,-2,-2)          0.0                     0.0                    !
 ! A8    L(4,5,6,-2,-2)          0.0                     0.0                    !
 --------------------------------------------------------------------------------
                           ----------------------------
                           ! Normal Mode    10        !
 --------------------------                            --------------------------
 ! Name  Definition              Value          Relative Weight (%)             !
 --------------------------------------------------------------------------------
 ! R1    R(1,2)                 -0.2283                 12.9                    !
 ! R2    R(1,3)                 -0.655                  37.1                    !
 ! R3    R(3,4)                  0.0                     0.0                    !
 ! R4    R(4,5)                  0.655                  37.1                    !
 ! R5    R(5,6)                  0.2283                 12.9                    !
 ! A1    L(2,1,3,-1,-1)          0.0                     0.0                    !
 ! A2    L(1,3,4,-1,-1)          0.0                     0.0                    !
 ! A3    L(3,4,5,-1,-1)          0.0                     0.0                    !
 ! A4    L(4,5,6,-1,-1)          0.0                     0.0                    !
 ! A5    L(2,1,3,-2,-2)          0.0                     0.0                    !
 ! A6    L(1,3,4,-2,-2)          0.0                     0.0                    !
 ! A7    L(3,4,5,-2,-2)          0.0                     0.0                    !
 ! A8    L(4,5,6,-2,-2)          0.0                     0.0                    !
 --------------------------------------------------------------------------------
                           ----------------------------
                           ! Normal Mode    11        !
 --------------------------                            --------------------------
 ! Name  Definition              Value          Relative Weight (%)             !
 --------------------------------------------------------------------------------
 ! R1    R(1,2)                 -0.2427                  8.8                    !
 ! R2    R(1,3)                 -0.6938                 25.1                    !
 ! R3    R(3,4)                  0.8951                 32.3                    !
 ! R4    R(4,5)                 -0.6938                 25.1                    !
 ! R5    R(5,6)                 -0.2427                  8.8                    !
 ! A1    L(2,1,3,-1,-1)          0.0                     0.0                    !
 ! A2    L(1,3,4,-1,-1)          0.0                     0.0                    !
 ! A3    L(3,4,5,-1,-1)          0.0                     0.0                    !
 ! A4    L(4,5,6,-1,-1)          0.0                     0.0                    !
 ! A5    L(2,1,3,-2,-2)          0.0                     0.0                    !
 ! A6    L(1,3,4,-2,-2)          0.0                     0.0                    !
 ! A7    L(3,4,5,-2,-2)          0.0                     0.0                    !
 ! A8    L(4,5,6,-2,-2)          0.0                     0.0                    !
 --------------------------------------------------------------------------------
                           ----------------------------
                           ! Normal Mode    12        !
 --------------------------                            --------------------------
 ! Name  Definition              Value          Relative Weight (%)             !
 --------------------------------------------------------------------------------
 ! R1    R(1,2)                  0.7808                 43.3                    !
 ! R2    R(1,3)                 -0.0997                  5.5                    !
 ! R3    R(3,4)                  0.0427                  2.4                    !
 ! R4    R(4,5)                 -0.0997                  5.5                    !
 ! R5    R(5,6)                  0.7808                 43.3                    !
 ! A1    L(2,1,3,-1,-1)          0.0                     0.0                    !
 ! A2    L(1,3,4,-1,-1)          0.0                     0.0                    !
 ! A3    L(3,4,5,-1,-1)          0.0                     0.0                    !
 ! A4    L(4,5,6,-1,-1)          0.0                     0.0                    !
 ! A5    L(2,1,3,-2,-2)          0.0                     0.0                    !
 ! A6    L(1,3,4,-2,-2)          0.0                     0.0                    !
 ! A7    L(3,4,5,-2,-2)          0.0                     0.0                    !
 ! A8    L(4,5,6,-2,-2)          0.0                     0.0                    !
 --------------------------------------------------------------------------------
                           ----------------------------
                           ! Normal Mode    13        !
 --------------------------                            --------------------------
 ! Name  Definition              Value          Relative Weight (%)             !
 --------------------------------------------------------------------------------
 ! R1    R(1,2)                  0.7819                 44.3                    !
 ! R2    R(1,3)                 -0.1001                  5.7                    !
 ! R3    R(3,4)                  0.0                     0.0                    !
 ! R4    R(4,5)                  0.1001                  5.7                    !
 ! R5    R(5,6)                 -0.7819                 44.3                    !
 ! A1    L(2,1,3,-1,-1)          0.0                     0.0                    !
 ! A2    L(1,3,4,-1,-1)          0.0                     0.0                    !
 ! A3    L(3,4,5,-1,-1)          0.0                     0.0                    !
 ! A4    L(4,5,6,-1,-1)          0.0                     0.0                    !
 ! A5    L(2,1,3,-2,-2)          0.0                     0.0                    !
 ! A6    L(1,3,4,-2,-2)          0.0                     0.0                    !
 ! A7    L(3,4,5,-2,-2)          0.0                     0.0                    !
 ! A8    L(4,5,6,-2,-2)          0.0                     0.0                    !
 --------------------------------------------------------------------------------
 Max01P=      5 Av01P=    4.23 Stan. Dev.=    0.44
 Max05P=      5 Av05P=    3.69 Stan. Dev.=    0.85
 Max10P=      4 Av10P=    2.62 Stan. Dev.=    0.87
 MaxNDP=     13 AvNDP=   13.00 Stan. Dev.=    0.00
 ***** Axes restored to original set *****
 -------------------------------------------------------------------
 Center     Atomic                   Forces (Hartrees/Bohr)
 Number     Number              X              Y              Z
 -------------------------------------------------------------------
      1        6          -0.000000000   -0.000000000    0.000160282
      2        1           0.000000000    0.000000000   -0.000052319
      3        6          -0.000000000   -0.000000000   -0.000160179
      4        6           0.000000000    0.000000000    0.000160179
      5        6          -0.000000000    0.000000000   -0.000160282
      6        1          -0.000000000   -0.000000000    0.000052319
 -------------------------------------------------------------------
 Cartesian Forces:  Max     0.000160282 RMS     0.000077521
 FormGI is forming the generalized inverse of G from B-inverse, IUseBI=4.

 GradGradGradGradGradGradGradGradGradGradGradGradGradGradGradGradGradGrad
 Berny optimization.
 GetPCM: File not found, return IValue=0.
 Optmz: redundant internal coordinate code flag= 1
 IB Matrix in FormBX:
              1            2            3            4            5
     1            1            1            3            4            5
     2            2            3            4            5            6
     3            0            0            0            0            0
     4            0            0            0            0            0
              6            7            8            9           10
     1            2            1            3            4            2
     2            1            3            4            5            1
     3            3            4            5            6            3
     4            0            0            0            0            0
             11           12           13
     1            1            3            4
     2            3            4            5
     3            4            5            6
     4            0            0            0
 B Matrix in FormBX:
                 1             2             3             4             5 
      1   0.000000D+00  0.000000D+00  0.000000D+00  0.000000D+00  0.000000D+00
      2   0.000000D+00  0.000000D+00  0.000000D+00  0.000000D+00  0.000000D+00
      3  -0.100000D+01  0.100000D+01  0.100000D+01  0.100000D+01  0.100000D+01
      4   0.000000D+00  0.000000D+00  0.000000D+00  0.000000D+00  0.000000D+00
      5   0.000000D+00  0.000000D+00  0.000000D+00  0.000000D+00  0.000000D+00
      6   0.100000D+01 -0.100000D+01 -0.100000D+01 -0.100000D+01 -0.100000D+01
      7   0.000000D+00  0.000000D+00  0.000000D+00  0.000000D+00  0.000000D+00
      8   0.000000D+00  0.000000D+00  0.000000D+00  0.000000D+00  0.000000D+00
      9   0.000000D+00  0.000000D+00  0.000000D+00  0.000000D+00  0.000000D+00
     10   0.000000D+00  0.000000D+00  0.000000D+00  0.000000D+00  0.000000D+00
     11   0.000000D+00  0.000000D+00  0.000000D+00  0.000000D+00  0.000000D+00
     12   0.000000D+00  0.000000D+00  0.000000D+00  0.000000D+00  0.000000D+00
                 6             7             8             9            10 
      1   0.000000D+00  0.000000D+00  0.000000D+00  0.000000D+00  0.496655D+00
      2  -0.496655D+00 -0.436463D+00 -0.386617D+00 -0.436463D+00  0.000000D+00
      3   0.000000D+00  0.000000D+00  0.000000D+00  0.000000D+00  0.000000D+00
      4   0.000000D+00  0.000000D+00  0.000000D+00  0.000000D+00 -0.933118D+00
      5   0.933118D+00  0.823080D+00  0.823080D+00  0.933118D+00  0.000000D+00
      6   0.000000D+00  0.000000D+00  0.000000D+00  0.000000D+00  0.000000D+00
      7   0.000000D+00  0.000000D+00  0.000000D+00  0.000000D+00  0.436463D+00
      8  -0.436463D+00 -0.386617D+00 -0.436463D+00 -0.496655D+00  0.000000D+00
      9   0.000000D+00  0.000000D+00  0.000000D+00  0.000000D+00  0.000000D+00
     10   0.000000D+00  0.000000D+00  0.000000D+00  0.000000D+00  0.000000D+00
     11   0.000000D+00  0.000000D+00  0.000000D+00  0.000000D+00  0.000000D+00
     12   0.000000D+00  0.000000D+00  0.000000D+00  0.000000D+00  0.000000D+00
                11            12            13 
      1   0.436463D+00  0.386617D+00  0.436463D+00
      2   0.000000D+00  0.000000D+00  0.000000D+00
      3   0.000000D+00  0.000000D+00  0.000000D+00
      4  -0.823080D+00 -0.823080D+00 -0.933118D+00
      5   0.000000D+00  0.000000D+00  0.000000D+00
      6   0.000000D+00  0.000000D+00  0.000000D+00
      7   0.386617D+00  0.436463D+00  0.496655D+00
      8   0.000000D+00  0.000000D+00  0.000000D+00
      9   0.000000D+00  0.000000D+00  0.000000D+00
     10   0.000000D+00  0.000000D+00  0.000000D+00
     11   0.000000D+00  0.000000D+00  0.000000D+00
     12   0.000000D+00  0.000000D+00  0.000000D+00
 IB Matrix in Red2BG:
              1            2            3            4            5
     1            1            1            3            4            5
     2            2            3            4            5            6
     3            0            0            0            0            0
     4            0            0            0            0            0
              6            7            8            9           10
     1            2            1            3            4            2
     2            1            3            4            5            1
     3            3            4            5            6            3
     4            0            0            0            0            0
             11           12           13
     1            1            3            4
     2            3            4            5
     3            4            5            6
     4            0            0            0
 B Matrix in Red2BG:
                 1             2             3             4             5 
      1   0.000000D+00  0.000000D+00  0.000000D+00  0.000000D+00  0.000000D+00
      2   0.000000D+00  0.000000D+00  0.000000D+00  0.000000D+00  0.000000D+00
      3  -0.100000D+01  0.100000D+01  0.100000D+01  0.100000D+01  0.100000D+01
      4   0.000000D+00  0.000000D+00  0.000000D+00  0.000000D+00  0.000000D+00
      5   0.000000D+00  0.000000D+00  0.000000D+00  0.000000D+00  0.000000D+00
      6   0.100000D+01 -0.100000D+01 -0.100000D+01 -0.100000D+01 -0.100000D+01
      7   0.000000D+00  0.000000D+00  0.000000D+00  0.000000D+00  0.000000D+00
      8   0.000000D+00  0.000000D+00  0.000000D+00  0.000000D+00  0.000000D+00
      9   0.000000D+00  0.000000D+00  0.000000D+00  0.000000D+00  0.000000D+00
     10   0.000000D+00  0.000000D+00  0.000000D+00  0.000000D+00  0.000000D+00
     11   0.000000D+00  0.000000D+00  0.000000D+00  0.000000D+00  0.000000D+00
     12   0.000000D+00  0.000000D+00  0.000000D+00  0.000000D+00  0.000000D+00
                 6             7             8             9            10 
      1   0.000000D+00  0.000000D+00  0.000000D+00  0.000000D+00  0.496655D+00
      2  -0.496655D+00 -0.436463D+00 -0.386617D+00 -0.436463D+00  0.000000D+00
      3   0.000000D+00  0.000000D+00  0.000000D+00  0.000000D+00  0.000000D+00
      4   0.000000D+00  0.000000D+00  0.000000D+00  0.000000D+00 -0.933118D+00
      5   0.933118D+00  0.823080D+00  0.823080D+00  0.933118D+00  0.000000D+00
      6   0.000000D+00  0.000000D+00  0.000000D+00  0.000000D+00  0.000000D+00
      7   0.000000D+00  0.000000D+00  0.000000D+00  0.000000D+00  0.436463D+00
      8  -0.436463D+00 -0.386617D+00 -0.436463D+00 -0.496655D+00  0.000000D+00
      9   0.000000D+00  0.000000D+00  0.000000D+00  0.000000D+00  0.000000D+00
     10   0.000000D+00  0.000000D+00  0.000000D+00  0.000000D+00  0.000000D+00
     11   0.000000D+00  0.000000D+00  0.000000D+00  0.000000D+00  0.000000D+00
     12   0.000000D+00  0.000000D+00  0.000000D+00  0.000000D+00  0.000000D+00
                11            12            13 
      1   0.436463D+00  0.386617D+00  0.436463D+00
      2   0.000000D+00  0.000000D+00  0.000000D+00
      3   0.000000D+00  0.000000D+00  0.000000D+00
      4  -0.823080D+00 -0.823080D+00 -0.933118D+00
      5   0.000000D+00  0.000000D+00  0.000000D+00
      6   0.000000D+00  0.000000D+00  0.000000D+00
      7   0.386617D+00  0.436463D+00  0.496655D+00
      8   0.000000D+00  0.000000D+00  0.000000D+00
      9   0.000000D+00  0.000000D+00  0.000000D+00
     10   0.000000D+00  0.000000D+00  0.000000D+00
     11   0.000000D+00  0.000000D+00  0.000000D+00
     12   0.000000D+00  0.000000D+00  0.000000D+00
 G Matrix: 
                 1             2             3             4             5 
      1   0.200000D+01 -0.100000D+01  0.000000D+00  0.000000D+00  0.000000D+00
      2  -0.100000D+01  0.200000D+01 -0.100000D+01  0.000000D+00  0.000000D+00
      3   0.000000D+00 -0.100000D+01  0.200000D+01 -0.100000D+01  0.000000D+00
      4   0.000000D+00  0.000000D+00 -0.100000D+01  0.200000D+01 -0.100000D+01
      5   0.000000D+00  0.000000D+00  0.000000D+00 -0.100000D+01  0.200000D+01
      6   0.000000D+00  0.000000D+00  0.000000D+00  0.000000D+00  0.000000D+00
      7   0.000000D+00  0.000000D+00  0.000000D+00  0.000000D+00  0.000000D+00
      8   0.000000D+00  0.000000D+00  0.000000D+00  0.000000D+00  0.000000D+00
      9   0.000000D+00  0.000000D+00  0.000000D+00  0.000000D+00  0.000000D+00
     10   0.000000D+00  0.000000D+00  0.000000D+00  0.000000D+00  0.000000D+00
     11   0.000000D+00  0.000000D+00  0.000000D+00  0.000000D+00  0.000000D+00
     12   0.000000D+00  0.000000D+00  0.000000D+00  0.000000D+00  0.000000D+00
     13   0.000000D+00  0.000000D+00  0.000000D+00  0.000000D+00  0.000000D+00
                 6             7             8             9            10 
      1   0.000000D+00  0.000000D+00  0.000000D+00  0.000000D+00  0.000000D+00
      2   0.000000D+00  0.000000D+00  0.000000D+00  0.000000D+00  0.000000D+00
      3   0.000000D+00  0.000000D+00  0.000000D+00  0.000000D+00  0.000000D+00
      4   0.000000D+00  0.000000D+00  0.000000D+00  0.000000D+00  0.000000D+00
      5   0.000000D+00  0.000000D+00  0.000000D+00  0.000000D+00  0.000000D+00
      6   0.130787D+01 -0.766515D+00  0.168744D+00  0.000000D+00  0.000000D+00
      7  -0.766515D+00  0.101743D+01 -0.636434D+00  0.168744D+00  0.000000D+00
      8   0.168744D+00 -0.636434D+00  0.101743D+01 -0.766515D+00  0.000000D+00
      9   0.000000D+00  0.168744D+00 -0.766515D+00  0.130787D+01  0.000000D+00
     10   0.000000D+00  0.000000D+00  0.000000D+00  0.000000D+00  0.130787D+01
     11   0.000000D+00  0.000000D+00  0.000000D+00  0.000000D+00 -0.766515D+00
     12   0.000000D+00  0.000000D+00  0.000000D+00  0.000000D+00  0.168744D+00
     13   0.000000D+00  0.000000D+00  0.000000D+00  0.000000D+00  0.000000D+00
                11            12            13 
      1   0.000000D+00  0.000000D+00  0.000000D+00
      2   0.000000D+00  0.000000D+00  0.000000D+00
      3   0.000000D+00  0.000000D+00  0.000000D+00
      4   0.000000D+00  0.000000D+00  0.000000D+00
      5   0.000000D+00  0.000000D+00  0.000000D+00
      6   0.000000D+00  0.000000D+00  0.000000D+00
      7   0.000000D+00  0.000000D+00  0.000000D+00
      8   0.000000D+00  0.000000D+00  0.000000D+00
      9   0.000000D+00  0.000000D+00  0.000000D+00
     10  -0.766515D+00  0.168744D+00  0.000000D+00
     11   0.101743D+01 -0.636434D+00  0.168744D+00
     12  -0.636434D+00  0.101743D+01 -0.766515D+00
     13   0.168744D+00 -0.766515D+00  0.130787D+01
 Red2BG:  D1=  8.81D-02 OD1=  1.31D-15 B2RMS=  0.00D+00 IAprox=1
 Red2BG is reusing G-inverse.
 G-Inverse: 
                1             2             3             4             5 
      1  0.833333D+00
      2  0.666667D+00  0.133333D+01
      3  0.500000D+00  0.100000D+01  0.150000D+01
      4  0.333333D+00  0.666667D+00  0.100000D+01  0.133333D+01
      5  0.166667D+00  0.333333D+00  0.500000D+00  0.666667D+00  0.833333D+00
      6  0.000000D+00  0.000000D+00  0.000000D+00  0.000000D+00  0.000000D+00
      7  0.000000D+00  0.000000D+00  0.000000D+00  0.000000D+00  0.000000D+00
      8  0.000000D+00  0.000000D+00  0.000000D+00  0.000000D+00  0.000000D+00
      9  0.000000D+00  0.000000D+00  0.000000D+00  0.000000D+00  0.000000D+00
     10  0.000000D+00  0.000000D+00  0.000000D+00  0.000000D+00  0.000000D+00
     11  0.000000D+00  0.000000D+00  0.000000D+00  0.000000D+00  0.000000D+00
     12  0.000000D+00  0.000000D+00  0.000000D+00  0.000000D+00  0.000000D+00
     13  0.000000D+00  0.000000D+00  0.000000D+00  0.000000D+00  0.000000D+00
                6             7             8             9            10 
      6  0.199321D+01
      7  0.248318D+01  0.514644D+01
      8  0.175724D+01  0.413128D+01  0.514644D+01
      9  0.709494D+00  0.175724D+01  0.248318D+01  0.199321D+01
     10  0.000000D+00  0.000000D+00  0.000000D+00  0.000000D+00  0.199321D+01
     11  0.000000D+00  0.000000D+00  0.000000D+00  0.000000D+00  0.248318D+01
     12  0.000000D+00  0.000000D+00  0.000000D+00  0.000000D+00  0.175724D+01
     13  0.000000D+00  0.000000D+00  0.000000D+00  0.000000D+00  0.709494D+00
               11            12            13 
     11  0.514644D+01
     12  0.413128D+01  0.514644D+01
     13  0.175724D+01  0.248318D+01  0.199321D+01
 Internal  Forces:  Max     0.000107962 RMS     0.000049235
 Search for a local minimum.
 Step number   1 out of a maximum of    2
 All quantities printed in internal units (Hartrees-Bohrs-Radians)
 Second derivative matrix not updated -- analytic derivatives used.
 The second derivative matrix:
                          R1        R2        R3        R4        R5
           R1           0.41683
           R2          -0.00474   1.07592
           R3          -0.00088   0.04327   0.49692
           R4           0.00000  -0.02318   0.04327   1.07592
           R5           0.00011   0.00000  -0.00088  -0.00474   0.41683
           A1          -0.00000   0.00000  -0.00000  -0.00000   0.00000
           A2          -0.00000  -0.00000   0.00000   0.00000   0.00000
           A3          -0.00000  -0.00000  -0.00000   0.00000   0.00000
           A4          -0.00000  -0.00000   0.00000   0.00000   0.00000
           A5           0.00000   0.00000   0.00000  -0.00000   0.00000
           A6          -0.00000   0.00000   0.00000   0.00000   0.00000
           A7          -0.00000  -0.00000  -0.00000  -0.00000   0.00000
           A8          -0.00000   0.00000  -0.00000  -0.00000  -0.00000
                          A1        A2        A3        A4        A5
           A1           0.04895
           A2           0.01982   0.13553
           A3          -0.00165  -0.01946   0.13553
           A4          -0.00276  -0.00165   0.01982   0.04895
           A5           0.00000   0.00000   0.00000   0.00000   0.04895
           A6          -0.00000  -0.00000  -0.00000   0.00000   0.01982
           A7          -0.00000   0.00000   0.00000  -0.00000  -0.00165
           A8           0.00000   0.00000  -0.00000  -0.00000  -0.00276
                          A6        A7        A8
           A6           0.13553
           A7          -0.01946   0.13553
           A8          -0.00165   0.01982   0.04895
 ITU=  0
 IAlgDg is returning  0.
 DiagDN:  BShift=  1.00D+00
 Eigenvectors of the second derivative matrix:
                           1         2         3         4         5
     Eigenvalues --     0.04176   0.04176   0.04742   0.04742   0.12051
   1         R1         0.00000  -0.00000  -0.00000  -0.00000  -0.00000
   2         R2        -0.00000   0.00000   0.00000   0.00000   0.00000
   3         R3        -0.00000  -0.00000  -0.00000  -0.00000  -0.00000
   4         R4         0.00000   0.00000   0.00000   0.00000  -0.00000
   5         R5        -0.00000   0.00000  -0.00000   0.00000   0.00000
   6         A1        -0.00006  -0.68688   0.00005  -0.69343  -0.00004
   7         A2         0.00001   0.16790  -0.00001   0.13842  -0.00017
   8         A3         0.00001   0.16790   0.00001  -0.13842  -0.00017
   9         A4        -0.00006  -0.68688  -0.00005   0.69343  -0.00004
  10         A5         0.68688  -0.00006   0.69343   0.00005  -0.16790
  11         A6        -0.16790   0.00001  -0.13842  -0.00001  -0.68688
  12         A7        -0.16790   0.00001   0.13842   0.00001  -0.68688
  13         A8         0.68688  -0.00006  -0.69343  -0.00005  -0.16790
                           6         7         8         9        10
     Eigenvalues --     0.12051   0.15928   0.15928   0.41669   0.41689
   1         R1        -0.00000   0.00000  -0.00000  -0.70709   0.70705
   2         R2        -0.00000   0.00000  -0.00000  -0.00492   0.00455
   3         R3         0.00000   0.00000  -0.00000   0.00000   0.01064
   4         R4         0.00000   0.00000  -0.00000   0.00492   0.00455
   5         R5         0.00000   0.00000  -0.00000   0.70709   0.70705
   6         A1        -0.16790   0.13842   0.00001   0.00000  -0.00000
   7         A2        -0.68688   0.69343   0.00005   0.00000  -0.00000
   8         A3        -0.68688  -0.69343  -0.00005   0.00000   0.00000
   9         A4        -0.16790  -0.13842  -0.00001  -0.00000   0.00000
  10         A5         0.00004  -0.00001   0.13842   0.00000   0.00000
  11         A6         0.00017  -0.00005   0.69343   0.00000  -0.00000
  12         A7         0.00017   0.00005  -0.69343   0.00000  -0.00000
  13         A8         0.00004   0.00001  -0.13842   0.00000  -0.00000
                          11        12        13
     Eigenvalues --     0.49027   1.05944   1.09913
   1         R1         0.00699   0.00534  -0.00492
   2         R2         0.07653  -0.70294   0.70709
   3         R3        -0.99408  -0.10816   0.00000
   4         R4         0.07653  -0.70294  -0.70709
   5         R5         0.00699   0.00534   0.00492
   6         A1         0.00000   0.00000  -0.00000
   7         A2        -0.00000   0.00000  -0.00000
   8         A3        -0.00000  -0.00000  -0.00000
   9         A4        -0.00000  -0.00000  -0.00000
  10         A5        -0.00000   0.00000   0.00000
  11         A6        -0.00000  -0.00000   0.00000
  12         A7         0.00000   0.00000   0.00000
  13         A8         0.00000  -0.00000   0.00000
 Forces in eigenvector basis: 
                 1 
      1   0.000000D+00
      2   0.000000D+00
      3   0.000000D+00
      4   0.000000D+00
      5   0.000000D+00
      6   0.000000D+00
      7   0.000000D+00
      8   0.000000D+00
      9   0.000000D+00
     10  -0.735581D-04
     11   0.677017D-04
     12  -0.146692D-03
     13   0.000000D+00
 Angle between quadratic step and forces=  24.22 degrees.
 Linear search not attempted -- first point.
 IB Matrix in FormBX:
              1            2            3            4            5
     1            1            1            3            4            5
     2            2            3            4            5            6
     3            0            0            0            0            0
     4            0            0            0            0            0
              6            7            8            9           10
     1            2            1            3            4            2
     2            1            3            4            5            1
     3            3            4            5            6            3
     4            0            0            0            0            0
             11           12           13
     1            1            3            4
     2            3            4            5
     3            4            5            6
     4            0            0            0
 B Matrix in FormBX:
                 1             2             3             4             5 
      1   0.000000D+00  0.000000D+00  0.000000D+00  0.000000D+00  0.000000D+00
      2   0.000000D+00  0.000000D+00  0.000000D+00  0.000000D+00  0.000000D+00
      3  -0.100000D+01  0.100000D+01  0.100000D+01  0.100000D+01  0.100000D+01
      4   0.000000D+00  0.000000D+00  0.000000D+00  0.000000D+00  0.000000D+00
      5   0.000000D+00  0.000000D+00  0.000000D+00  0.000000D+00  0.000000D+00
      6   0.100000D+01 -0.100000D+01 -0.100000D+01 -0.100000D+01 -0.100000D+01
      7   0.000000D+00  0.000000D+00  0.000000D+00  0.000000D+00  0.000000D+00
      8   0.000000D+00  0.000000D+00  0.000000D+00  0.000000D+00  0.000000D+00
      9   0.000000D+00  0.000000D+00  0.000000D+00  0.000000D+00  0.000000D+00
     10   0.000000D+00  0.000000D+00  0.000000D+00  0.000000D+00  0.000000D+00
     11   0.000000D+00  0.000000D+00  0.000000D+00  0.000000D+00  0.000000D+00
     12   0.000000D+00  0.000000D+00  0.000000D+00  0.000000D+00  0.000000D+00
                 6             7             8             9            10 
      1   0.000000D+00  0.000000D+00  0.000000D+00  0.000000D+00  0.496655D+00
      2  -0.496655D+00 -0.436463D+00 -0.386617D+00 -0.436463D+00  0.000000D+00
      3   0.000000D+00  0.000000D+00  0.000000D+00  0.000000D+00  0.000000D+00
      4   0.000000D+00  0.000000D+00  0.000000D+00  0.000000D+00 -0.933118D+00
      5   0.933118D+00  0.823080D+00  0.823080D+00  0.933118D+00  0.000000D+00
      6   0.000000D+00  0.000000D+00  0.000000D+00  0.000000D+00  0.000000D+00
      7   0.000000D+00  0.000000D+00  0.000000D+00  0.000000D+00  0.436463D+00
      8  -0.436463D+00 -0.386617D+00 -0.436463D+00 -0.496655D+00  0.000000D+00
      9   0.000000D+00  0.000000D+00  0.000000D+00  0.000000D+00  0.000000D+00
     10   0.000000D+00  0.000000D+00  0.000000D+00  0.000000D+00  0.000000D+00
     11   0.000000D+00  0.000000D+00  0.000000D+00  0.000000D+00  0.000000D+00
     12   0.000000D+00  0.000000D+00  0.000000D+00  0.000000D+00  0.000000D+00
                11            12            13 
      1   0.436463D+00  0.386617D+00  0.436463D+00
      2   0.000000D+00  0.000000D+00  0.000000D+00
      3   0.000000D+00  0.000000D+00  0.000000D+00
      4  -0.823080D+00 -0.823080D+00 -0.933118D+00
      5   0.000000D+00  0.000000D+00  0.000000D+00
      6   0.000000D+00  0.000000D+00  0.000000D+00
      7   0.386617D+00  0.436463D+00  0.496655D+00
      8   0.000000D+00  0.000000D+00  0.000000D+00
      9   0.000000D+00  0.000000D+00  0.000000D+00
     10   0.000000D+00  0.000000D+00  0.000000D+00
     11   0.000000D+00  0.000000D+00  0.000000D+00
     12   0.000000D+00  0.000000D+00  0.000000D+00
 Iteration  1 RMS(Cart)=  0.00004333 RMS(Int)=  0.00000000
 Iteration  2 RMS(Cart)=  0.00000000 RMS(Int)=  0.00000000
 Input Coordinates in SymCor: 
                 1             2             3             4             5 
      1   0.000000D+00  0.000000D+00  0.000000D+00  0.000000D+00  0.000000D+00
      2   0.000000D+00  0.000000D+00  0.000000D+00  0.000000D+00  0.000000D+00
      3   0.358446D+01  0.559781D+01  0.129321D+01 -0.129321D+01 -0.358446D+01
                 6 
      1   0.000000D+00
      2   0.000000D+00
      3  -0.559781D+01
 Symmetrized Coordinates in SymCor: 
                 1             2             3             4             5 
      1   0.000000D+00  0.000000D+00  0.000000D+00  0.000000D+00  0.000000D+00
      2   0.000000D+00  0.000000D+00  0.000000D+00  0.000000D+00  0.000000D+00
      3   0.358446D+01  0.559781D+01  0.129321D+01 -0.129321D+01 -0.358446D+01
                 6 
      1   0.000000D+00
      2   0.000000D+00
      3  -0.559781D+01
 Final Coordinates in SymCor: 
                 1             2             3             4             5 
      1   0.000000D+00  0.000000D+00  0.000000D+00  0.000000D+00  0.000000D+00
      2   0.000000D+00  0.000000D+00  0.000000D+00  0.000000D+00  0.000000D+00
      3   0.358446D+01  0.559781D+01  0.129321D+01 -0.129321D+01 -0.358446D+01
                 6 
      1   0.000000D+00
      2   0.000000D+00
      3  -0.559781D+01
 ClnCor:  largest displacement from symmetrization is 2.27D-13 for atom     4.
 Variable       Old X    -DE/DX   Delta X   Delta X   Delta X     New X
                                 (Linear)    (Quad)   (Total)
    R1        2.01347  -0.00005   0.00000  -0.00012  -0.00012   2.01334
    R2        2.29115   0.00011   0.00000   0.00011   0.00011   2.29125
    R3        2.58654  -0.00005   0.00000  -0.00012  -0.00012   2.58641
    R4        2.29115   0.00011   0.00000   0.00011   0.00011   2.29125
    R5        2.01347  -0.00005   0.00000  -0.00012  -0.00012   2.01334
    A1        3.14159  -0.00000   0.00000  -0.00000   0.00000   3.14159
    A2        3.14159  -0.00000   0.00000   0.00000   0.00000   3.14159
    A3        3.14159   0.00000   0.00000   0.00000   0.00000   3.14159
    A4        3.14159   0.00000   0.00000   0.00000   0.00000   3.14159
    A5        3.14159   0.00000   0.00000   0.00000   0.00000   3.14159
    A6        3.14159  -0.00000   0.00000  -0.00000   0.00000   3.14159
    A7        3.14159  -0.00000   0.00000  -0.00000   0.00000   3.14159
    A8        3.14159  -0.00000   0.00000  -0.00000   0.00000   3.14159
         Item               Value     Threshold  Converged?
 Maximum Force            0.000108     0.000450     YES
 RMS     Force            0.000049     0.000300     YES
 Maximum Displacement     0.000080     0.001800     YES
 RMS     Displacement     0.000043     0.001200     YES
 Predicted change in Energy=-2.131959D-08
 Optimization completed.
    -- Stationary point found.
                           ----------------------------
                           !   Optimized Parameters   !
                           ! (Angstroms and Degrees)  !
 --------------------------                            --------------------------
 ! Name  Definition              Value          Derivative Info.                !
 --------------------------------------------------------------------------------
 ! R1    R(1,2)                  1.0655         -DE/DX =   -0.0001              !
 ! R2    R(1,3)                  1.2124         -DE/DX =    0.0001              !
 ! R3    R(3,4)                  1.3687         -DE/DX =   -0.0001              !
 ! R4    R(4,5)                  1.2124         -DE/DX =    0.0001              !
 ! R5    R(5,6)                  1.0655         -DE/DX =   -0.0001              !
 ! A1    L(2,1,3,-1,-1)        180.0            -DE/DX =    0.0                 !
 ! A2    L(1,3,4,-1,-1)        180.0            -DE/DX =    0.0                 !
 ! A3    L(3,4,5,-1,-1)        180.0            -DE/DX =    0.0                 !
 ! A4    L(4,5,6,-1,-1)        180.0            -DE/DX =    0.0                 !
 ! A5    L(2,1,3,-2,-2)        180.0            -DE/DX =    0.0                 !
 ! A6    L(1,3,4,-2,-2)        180.0            -DE/DX =    0.0                 !
 ! A7    L(3,4,5,-2,-2)        180.0            -DE/DX =    0.0                 !
 ! A8    L(4,5,6,-2,-2)        180.0            -DE/DX =    0.0                 !
 --------------------------------------------------------------------------------
 GradGradGradGradGradGradGradGradGradGradGradGradGradGradGradGradGradGrad

 Leave Link  103 at Sat Aug 10 16:33:50 2019, MaxMem=  4294967296 cpu:               0.4 elap:               0.0
 Dipole is zero, so no output in dipole orientation.

 ----------------------------------------------------------------------

 Electric dipole moment (input orientation):
 (Debye = 10**-18 statcoulomb cm , SI units = C m)
                  (au)            (Debye)         (10**-30 SI)
   Tot        0.000000D+00      0.000000D+00      0.000000D+00
   x          0.000000D+00      0.000000D+00      0.000000D+00
   y          0.000000D+00      0.000000D+00      0.000000D+00
   z          0.000000D+00      0.000000D+00      0.000000D+00

 Dipole polarizability, Alpha (input orientation).
 (esu units = cm**3 , SI units = C**2 m**2 J**-1)
 Alpha(0;0):
               (au)            (10**-24 esu)      (10**-40 SI)
   iso        0.358538D+02      0.531298D+01      0.591149D+01
   aniso      0.668552D+02      0.990692D+01      0.110229D+02
   xx         0.135687D+02      0.201067D+01      0.223717D+01
   yx         0.000000D+00      0.000000D+00      0.000000D+00
   yy         0.135687D+02      0.201067D+01      0.223717D+01
   zx         0.000000D+00      0.000000D+00      0.000000D+00
   zy         0.000000D+00      0.000000D+00      0.000000D+00
   zz         0.804239D+02      0.119176D+02      0.132601D+02

 ----------------------------------------------------------------------

 Test job not archived.
 1\1\NSC-N505\Freq\RB3LYP\6-31G(d,p)\C4H2\X_KJEJO\10-Aug-2019\0\\# freq
 (intmodes) iop(1/33=3) b3lyp/6-31g(d,p) geom=connectivity iop(7/75=-1)
 \\name\\0,1\C,0.,0.,1.896791\H,0.,0.,2.962273\C,0.,0.,0.684368\C,0.,0.
 ,-0.684368\C,0.,0.,-1.896791\H,0.,0.,-2.962273\\Version=ES64L-G16RevB.
 01\State=1-SGG\HF=-153.4855761\RMSD=2.335e-09\RMSF=7.752e-05\ZeroPoint
 =0.038348\Thermal=0.0424625\Dipole=0.,0.,0.\DipoleDeriv=-0.2564379,0.,
 0.,0.,-0.2564379,0.,0.,0.,-0.4217168,0.2151259,0.,0.,0.,0.2151259,0.,0
 .,0.,0.277984,0.041312,0.,0.,0.,0.041312,0.,0.,0.,0.1437328,0.041312,0
 .,0.,0.,0.041312,0.,0.,0.,0.1437328,-0.2564379,0.,0.,0.,-0.2564379,0.,
 0.,0.,-0.4217168,0.2151259,0.,0.,0.,0.2151259,0.,0.,0.,0.277984\Polar=
 13.568685,0.,13.568685,0.,0.,80.4239058\Quadrupole=-3.0342797,-3.03427
 97,6.0685594,0.,0.,0.\PG=D*H [C*(H1C1C1.C1C1H1)]\NImag=0\\0.05227708,0
 .,0.05227708,0.,0.,1.50224123,-0.01841633,0.,0.,0.01210055,0.,-0.01841
 633,0.,0.,0.01210055,0.,0.,-0.42157681,0.,0.,0.41683195,-0.05226836,0.
 ,0.,0.00219298,0.,0.,0.11896178,0.,-0.05226836,0.,0.,0.00219298,0.,0.,
 0.11896178,0.,0.,-1.03651473,0.,0.,0.00386440,0.,0.,1.48630449,0.02224
 897,0.,0.,0.00388321,0.,0.,-0.09501857,0.,0.,0.11896178,0.,0.02224897,
 0.,0.,0.00388321,0.,0.,-0.09501857,0.,0.,0.11896178,0.,0.,-0.06732880,
 0.,0.,0.00088217,0.,0.,-0.38720753,0.,0.,1.48630449,-0.00476058,0.,0.,
 0.00091922,0.,0.,0.02224897,0.,0.,-0.05226836,0.,0.,0.05227708,0.,-0.0
 0476058,0.,0.,0.00091922,0.,0.,0.02224897,0.,0.,-0.05226836,0.,0.,0.05
 227708,0.,0.,0.02307478,0.,0.,0.00010435,0.,0.,-0.06732880,0.,0.,-1.03
 651473,0.,0.,1.50224123,0.00091922,0.,0.,-0.00067963,0.,0.,0.00388321,
 0.,0.,0.00219298,0.,0.,-0.01841633,0.,0.,0.01210055,0.,0.00091922,0.,0
 .,-0.00067963,0.,0.,0.00388321,0.,0.,0.00219298,0.,0.,-0.01841633,0.,0
 .,0.01210055,0.,0.,0.00010435,0.,0.,-0.00010606,0.,0.,0.00088217,0.,0.
 ,0.00386440,0.,0.,-0.42157681,0.,0.,0.41683195\\0.,0.,-0.00016028,0.,0
 .,0.00005232,0.,0.,0.00016018,0.,0.,-0.00016018,0.,0.,0.00016028,0.,0.
 ,-0.00005232\\\@


 THE MOST INCOMPREHENSIBLE THING ABOUT THE WORLD
 IS THAT IT IS COMPREHENSIBLE. -- A. EINSTEIN
 Job cpu time:       0 days  0 hours  0 minutes 57.1 seconds.
 Elapsed time:       0 days  0 hours  0 minutes  5.1 seconds.
 File lengths (MBytes):  RWF=      6 Int=      0 D2E=      0 Chk=      8 Scr=      1
 Normal termination of Gaussian 16 at Sat Aug 10 16:33:50 2019.
