 Entering Gaussian System, Link 0=/software/sse/easybuild/prefix/software/Gaussian/16.B.01-avx2-nsc1-bdist/g16/g16.orig
 Input=freq-hp.wrap
 Output=freq-hp.log
 Initial command:
 /software/sse/easybuild/prefix/software/Gaussian/16.B.01-avx2-nsc1-bdist/g16/l1.exe "/scratch/local/Gau-370948.inp" -scrdir="/scratch/local/"
 Default is to use a total of  16 processors:
                               16 via shared-memory
                                1 via Linda
 Entering Link 1 = /software/sse/easybuild/prefix/software/Gaussian/16.B.01-avx2-nsc1-bdist/g16/l1.exe PID=    370953.
  
 Copyright (c) 1988-2017, Gaussian, Inc.  All Rights Reserved.
  
 This is part of the Gaussian(R) 16 program.  It is based on
 the Gaussian(R) 09 system (copyright 2009, Gaussian, Inc.),
 the Gaussian(R) 03 system (copyright 2003, Gaussian, Inc.),
 the Gaussian(R) 98 system (copyright 1998, Gaussian, Inc.),
 the Gaussian(R) 94 system (copyright 1995, Gaussian, Inc.),
 the Gaussian 92(TM) system (copyright 1992, Gaussian, Inc.),
 the Gaussian 90(TM) system (copyright 1990, Gaussian, Inc.),
 the Gaussian 88(TM) system (copyright 1988, Gaussian, Inc.),
 the Gaussian 86(TM) system (copyright 1986, Carnegie Mellon
 University), and the Gaussian 82(TM) system (copyright 1983,
 Carnegie Mellon University). Gaussian is a federally registered
 trademark of Gaussian, Inc.
  
 This software contains proprietary and confidential information,
 including trade secrets, belonging to Gaussian, Inc.
  
 This software is provided under written license and may be
 used, copied, transmitted, or stored only in accord with that
 written license.
  
 The following legend is applicable only to US Government
 contracts under FAR:
  
                    RESTRICTED RIGHTS LEGEND
  
 Use, reproduction and disclosure by the US Government is
 subject to restrictions as set forth in subparagraphs (a)
 and (c) of the Commercial Computer Software - Restricted
 Rights clause in FAR 52.227-19.
  
 Gaussian, Inc.
 340 Quinnipiac St., Bldg. 40, Wallingford CT 06492
  
  
 ---------------------------------------------------------------
 Warning -- This program may not be used in any manner that
 competes with the business of Gaussian, Inc. or will provide
 assistance to any competitor of Gaussian, Inc.  The licensee
 of this program is prohibited from giving any competitor of
 Gaussian, Inc. access to this program.  By using this program,
 the user acknowledges that Gaussian, Inc. is engaged in the
 business of creating and licensing software in the field of
 computational chemistry and represents and warrants to the
 licensee that it is not a competitor of Gaussian, Inc. and that
 it will not use this program in any manner prohibited above.
 ---------------------------------------------------------------
  

 Cite this work as:
 Gaussian 16, Revision B.01,
 M. J. Frisch, G. W. Trucks, H. B. Schlegel, G. E. Scuseria, 
 M. A. Robb, J. R. Cheeseman, G. Scalmani, V. Barone, 
 G. A. Petersson, H. Nakatsuji, X. Li, M. Caricato, A. V. Marenich, 
 J. Bloino, B. G. Janesko, R. Gomperts, B. Mennucci, H. P. Hratchian, 
 J. V. Ortiz, A. F. Izmaylov, J. L. Sonnenberg, D. Williams-Young, 
 F. Ding, F. Lipparini, F. Egidi, J. Goings, B. Peng, A. Petrone, 
 T. Henderson, D. Ranasinghe, V. G. Zakrzewski, J. Gao, N. Rega, 
 G. Zheng, W. Liang, M. Hada, M. Ehara, K. Toyota, R. Fukuda, 
 J. Hasegawa, M. Ishida, T. Nakajima, Y. Honda, O. Kitao, H. Nakai, 
 T. Vreven, K. Throssell, J. A. Montgomery, Jr., J. E. Peralta, 
 F. Ogliaro, M. J. Bearpark, J. J. Heyd, E. N. Brothers, K. N. Kudin, 
 V. N. Staroverov, T. A. Keith, R. Kobayashi, J. Normand, 
 K. Raghavachari, A. P. Rendell, J. C. Burant, S. S. Iyengar, 
 J. Tomasi, M. Cossi, J. M. Millam, M. Klene, C. Adamo, R. Cammi, 
 J. W. Ochterski, R. L. Martin, K. Morokuma, O. Farkas, 
 J. B. Foresman, and D. J. Fox, Gaussian, Inc., Wallingford CT, 2016.
 
 ******************************************
 Gaussian 16:  ES64L-G16RevB.01 20-Dec-2017
                10-Aug-2019 
 ******************************************
 %chk=freq.chk
 ----------------------------------------------------------------------
 # freq(hpmodes,intmodes) iop(1/33=3) b3lyp/6-31g(d,p) geom=connectivit
 y iop(7/75=-1)
 ----------------------------------------------------------------------
 1/10=4,18=20,30=1,33=3,38=1,57=2/1,3;
 2/9=110,12=2,17=6,18=5,40=1/2;
 3/5=1,6=6,7=101,11=2,25=1,30=1,71=2,74=-5,140=1/1,2,3;
 4//1;
 5/5=2,38=5,98=1/2;
 8/6=4,10=90,11=11/1;
 11/6=1,8=1,9=11,15=111,16=1/1,2,10;
 10/6=1/2;
 6/7=2,8=2,9=2,10=2,28=1/1;
 7/8=31,10=1,25=1,75=-1/1,2,3,16;
 1/10=4,18=20,30=1,33=3/3;
 99//99;
 ONIOM results not found on unit 2.
 ----
 name
 ----
 TstMul:  ICh=     0
 TstMul:  Mul=     1
 TstMul:  ICh=     0
 TstMul:  Mul=     1
 Symbolic Z-matrix:
 Charge =  0 Multiplicity = 1
 C                     2.10718  -2.60707   0. 
 C                     0.72886  -2.84986   0. 
 C                    -0.14899  -1.71992   0. 
 C                     1.94383  -0.39169   0. 
 N                     0.57348  -0.5112    0. 
 N                     2.76776  -1.43117   0. 
 N                     0.46092  -4.20908   0. 
 N                     2.67876  -3.85445   0. 
 H                     3.66962  -4.04232   0. 
 C                     1.63919  -4.77274   0. 
 H                     1.82799  -5.83769   0. 
 H                     0.        0.34905   0. 
 C                    -0.48144   3.09151   0. 
 C                    -2.44583   1.79951   0. 
 C                    -3.28339   2.97648   0. 
 C                    -2.65635   4.17863   0. 
 H                    -3.18736   5.12413   0. 
 O                     0.74383   3.24523   0. 
 N                    -1.29689   4.24256   0. 
 N                    -1.10927   1.88647   0. 
 H                    -0.8056    5.12538   0. 
 N                     2.44174   0.86274   0. 
 H                     3.44401   0.94898   0. 
 H                     1.85243   1.69778   0. 
 O                    -1.38956  -1.70288   0. 
 N                    -2.98941   0.57932   0. 
 H                    -2.38929  -0.26819   0. 
 H                    -3.99082   0.47452   0. 
 H                    -4.36313   2.90419   0. 
 
 RdStrC is calling ZToCFu for IStruc=1 NZ=    29.
                                ZToCFu                                
 ---------------------------------------------------------------------
 Center     Atomic      Atomic             Coordinates (Angstroms)
 Number     Number       Type             X           Y           Z
 ---------------------------------------------------------------------
      1          6           0        2.107180   -2.607066    0.000000
      2          6           0        0.728856   -2.849859    0.000000
      3          6           0       -0.148990   -1.719920    0.000000
      4          6           0        1.943834   -0.391690    0.000000
      5          7           0        0.573484   -0.511198    0.000000
      6          7           0        2.767757   -1.431167    0.000000
      7          7           0        0.460919   -4.209084    0.000000
      8          7           0        2.678761   -3.854454    0.000000
      9          1           0        3.669616   -4.042324    0.000000
     10          6           0        1.639186   -4.772738    0.000000
     11          1           0        1.827988   -5.837691    0.000000
     12          1           0        0.000000    0.349051    0.000000
     13          6           0       -0.481444    3.091506    0.000000
     14          6           0       -2.445833    1.799505    0.000000
     15          6           0       -3.283387    2.976478    0.000000
     16          6           0       -2.656349    4.178635    0.000000
     17          1           0       -3.187361    5.124135    0.000000
     18          8           0        0.743832    3.245227    0.000000
     19          7           0       -1.296893    4.242559    0.000000
     20          7           0       -1.109270    1.886471    0.000000
     21          1           0       -0.805598    5.125383    0.000000
     22          7           0        2.441742    0.862735    0.000000
     23          1           0        3.444013    0.948983    0.000000
     24          1           0        1.852426    1.697783    0.000000
     25          8           0       -1.389557   -1.702875    0.000000
     26          7           0       -2.989409    0.579316    0.000000
     27          1           0       -2.389289   -0.268194    0.000000
     28          1           0       -3.990823    0.474520    0.000000
     29          1           0       -4.363128    2.904187    0.000000
 ---------------------------------------------------------------------
 Connectivity in DoCon:
 I=     1 IAn=  6 IBond, RBType=     2  1.50     6  1.50     8  1.50
 I=     2 IAn=  6 IBond, RBType=     1  1.50     3  1.50     7  1.00
 I=     3 IAn=  6 IBond, RBType=     2  1.50     5  1.00    25  2.00
 I=     4 IAn=  6 IBond, RBType=     5  1.50     6  1.50    22  1.50
 I=     5 IAn=  7 IBond, RBType=     3  1.00     4  1.50    12  1.00
 I=     6 IAn=  7 IBond, RBType=     1  1.50     4  1.50
 I=     7 IAn=  7 IBond, RBType=     2  1.00    10  2.00
 I=     8 IAn=  7 IBond, RBType=     1  1.50     9  1.00    10  1.00
 I=     9 IAn=  1 IBond, RBType=     8  1.00
 I=    10 IAn=  6 IBond, RBType=     7  2.00     8  1.00    11  1.00
 I=    11 IAn=  1 IBond, RBType=    10  1.00
 I=    12 IAn=  1 IBond, RBType=     5  1.00
 I=    13 IAn=  6 IBond, RBType=    18  2.00    19  1.00    20  1.50
 I=    14 IAn=  6 IBond, RBType=    15  1.50    20  1.50    26  1.50
 I=    15 IAn=  6 IBond, RBType=    14  1.50    16  2.00    29  1.00
 I=    16 IAn=  6 IBond, RBType=    15  2.00    17  1.00    19  1.50
 I=    17 IAn=  1 IBond, RBType=    16  1.00
 I=    18 IAn=  8 IBond, RBType=    13  2.00
 I=    19 IAn=  7 IBond, RBType=    13  1.00    16  1.50    21  1.00
 I=    20 IAn=  7 IBond, RBType=    13  1.50    14  1.50
 I=    21 IAn=  1 IBond, RBType=    19  1.00
 I=    22 IAn=  7 IBond, RBType=     4  1.50    23  1.00    24  1.00
 I=    23 IAn=  1 IBond, RBType=    22  1.00
 I=    24 IAn=  1 IBond, RBType=    22  1.00
 I=    25 IAn=  8 IBond, RBType=     3  2.00
 I=    26 IAn=  7 IBond, RBType=    14  1.50    27  1.00    28  1.00
 I=    27 IAn=  1 IBond, RBType=    26  1.00
 I=    28 IAn=  1 IBond, RBType=    26  1.00
 I=    29 IAn=  1 IBond, RBType=    15  1.00
 After GenITR:
 ITRead=  0  0  0  0  0  0  0  0  0  0  0  0  0  0  0  0  0  0  0  0
 ITRead=  0  0  0  0  0  0  0  0  0
 MicOpt= -1 -1 -1 -1 -1 -1 -1 -1 -1 -1 -1 -1 -1 -1 -1 -1 -1 -1 -1 -1
 MicOpt= -1 -1 -1 -1 -1 -1 -1 -1 -1
 List IsCon N=     29 M=      2:
 I=      1 Vals=      2      1 |      6      1 |      8      1 |
 I=      2 Vals=      1      1 |      3      1 |      7      1 |
 I=      3 Vals=      2      1 |      5      1 |     25      2 |
 I=      4 Vals=      5      1 |      6      1 |     22      1 |
 I=      5 Vals=      3      1 |      4      1 |     12      1 |
 I=      6 Vals=      1      1 |      4      1 |
 I=      7 Vals=      2      1 |     10      2 |
 I=      8 Vals=      1      1 |      9      1 |     10      1 |
 I=      9 Vals=      8      1 |
 I=     10 Vals=      7      2 |      8      1 |     11      1 |
 I=     11 Vals=     10      1 |
 I=     12 Vals=      5      1 |
 I=     13 Vals=     18      2 |     19      1 |     20      1 |
 I=     14 Vals=     15      1 |     20      1 |     26      1 |
 I=     15 Vals=     14      1 |     16      2 |     29      1 |
 I=     16 Vals=     15      2 |     17      1 |     19      1 |
 I=     17 Vals=     16      1 |
 I=     18 Vals=     13      2 |
 I=     19 Vals=     13      1 |     16      1 |     21      1 |
 I=     20 Vals=     13      1 |     14      1 |
 I=     21 Vals=     19      1 |
 I=     22 Vals=      4      1 |     23      1 |     24      1 |
 I=     23 Vals=     22      1 |
 I=     24 Vals=     22      1 |
 I=     25 Vals=      3      2 |
 I=     26 Vals=     14      1 |     27      1 |     28      1 |
 I=     27 Vals=     26      1 |
 I=     28 Vals=     26      1 |
 I=     29 Vals=     15      1 |
 Add virtual bond connecting atoms O18        and H24        Dist= 3.60D+00.
 Add virtual bond connecting atoms N20        and H12        Dist= 3.58D+00.
 Add virtual bond connecting atoms H27        and O25        Dist= 3.30D+00.
 Coordinate R1 contains atom 1 which is already in QM block.
 Coordinate R1 contains atom 2 which is already in QM block.
 Coordinate R2 contains atom 1 which is already in QM block.
 Coordinate R2 contains atom 6 which is already in QM block.
 Coordinate R3 contains atom 1 which is already in QM block.
 Coordinate R3 contains atom 8 which is already in QM block.
 Coordinate R4 contains atom 2 which is already in QM block.
 Coordinate R4 contains atom 3 which is already in QM block.
 Coordinate R5 contains atom 2 which is already in QM block.
 Coordinate R5 contains atom 7 which is already in QM block.
 Coordinate R6 contains atom 3 which is already in QM block.
 Coordinate R6 contains atom 5 which is already in QM block.
 Coordinate R7 contains atom 3 which is already in QM block.
 Coordinate R7 contains atom 25 which is already in QM block.
 Coordinate R8 contains atom 4 which is already in QM block.
 Coordinate R8 contains atom 5 which is already in QM block.
 Coordinate R9 contains atom 4 which is already in QM block.
 Coordinate R9 contains atom 6 which is already in QM block.
 Coordinate R10 contains atom 4 which is already in QM block.
 Coordinate R10 contains atom 22 which is already in QM block.
 Coordinate R11 contains atom 5 which is already in QM block.
 Coordinate R11 contains atom 12 which is already in QM block.
 Coordinate R12 contains atom 7 which is already in QM block.
 Coordinate R12 contains atom 10 which is already in QM block.
 Coordinate R13 contains atom 8 which is already in QM block.
 Coordinate R13 contains atom 9 which is already in QM block.
 Coordinate R14 contains atom 8 which is already in QM block.
 Coordinate R14 contains atom 10 which is already in QM block.
 Coordinate R15 contains atom 10 which is already in QM block.
 Coordinate R15 contains atom 11 which is already in QM block.
 Coordinate R16 contains atom 12 which is already in QM block.
 Coordinate R16 contains atom 20 which is already in QM block.
 Coordinate R17 contains atom 13 which is already in QM block.
 Coordinate R17 contains atom 18 which is already in QM block.
 Coordinate R18 contains atom 13 which is already in QM block.
 Coordinate R18 contains atom 19 which is already in QM block.
 Coordinate R19 contains atom 13 which is already in QM block.
 Coordinate R19 contains atom 20 which is already in QM block.
 Coordinate R20 contains atom 14 which is already in QM block.
 Coordinate R20 contains atom 15 which is already in QM block.
 Coordinate R21 contains atom 14 which is already in QM block.
 Coordinate R21 contains atom 20 which is already in QM block.
 Coordinate R22 contains atom 14 which is already in QM block.
 Coordinate R22 contains atom 26 which is already in QM block.
 Coordinate R23 contains atom 15 which is already in QM block.
 Coordinate R23 contains atom 16 which is already in QM block.
 Coordinate R24 contains atom 15 which is already in QM block.
 Coordinate R24 contains atom 29 which is already in QM block.
 Coordinate R25 contains atom 16 which is already in QM block.
 Coordinate R25 contains atom 17 which is already in QM block.
 Coordinate R26 contains atom 16 which is already in QM block.
 Coordinate R26 contains atom 19 which is already in QM block.
 Coordinate R27 contains atom 18 which is already in QM block.
 Coordinate R27 contains atom 24 which is already in QM block.
 Coordinate R28 contains atom 19 which is already in QM block.
 Coordinate R28 contains atom 21 which is already in QM block.
 Coordinate R29 contains atom 22 which is already in QM block.
 Coordinate R29 contains atom 23 which is already in QM block.
 Coordinate R30 contains atom 22 which is already in QM block.
 Coordinate R30 contains atom 24 which is already in QM block.
 Coordinate R31 contains atom 25 which is already in QM block.
 Coordinate R31 contains atom 27 which is already in QM block.
 Coordinate R32 contains atom 26 which is already in QM block.
 Coordinate R32 contains atom 27 which is already in QM block.
 Coordinate R33 contains atom 26 which is already in QM block.
 Coordinate R33 contains atom 28 which is already in QM block.
 Coordinate A1 contains atom 2 which is already in QM block.
 Coordinate A1 contains atom 1 which is already in QM block.
 Coordinate A1 contains atom 1 which is already in QM block.
 Coordinate A2 contains atom 2 which is already in QM block.
 Coordinate A2 contains atom 1 which is already in QM block.
 Coordinate A2 contains atom 1 which is already in QM block.
 Coordinate A3 contains atom 6 which is already in QM block.
 Coordinate A3 contains atom 1 which is already in QM block.
 Coordinate A3 contains atom 1 which is already in QM block.
 Coordinate A4 contains atom 1 which is already in QM block.
 Coordinate A4 contains atom 2 which is already in QM block.
 Coordinate A4 contains atom 2 which is already in QM block.
 Coordinate A5 contains atom 1 which is already in QM block.
 Coordinate A5 contains atom 2 which is already in QM block.
 Coordinate A5 contains atom 2 which is already in QM block.
 Coordinate A6 contains atom 3 which is already in QM block.
 Coordinate A6 contains atom 2 which is already in QM block.
 Coordinate A6 contains atom 2 which is already in QM block.
 Coordinate A7 contains atom 2 which is already in QM block.
 Coordinate A7 contains atom 3 which is already in QM block.
 Coordinate A7 contains atom 3 which is already in QM block.
 Coordinate A8 contains atom 2 which is already in QM block.
 Coordinate A8 contains atom 3 which is already in QM block.
 Coordinate A8 contains atom 3 which is already in QM block.
 Coordinate A9 contains atom 5 which is already in QM block.
 Coordinate A9 contains atom 3 which is already in QM block.
 Coordinate A9 contains atom 3 which is already in QM block.
 Coordinate A10 contains atom 5 which is already in QM block.
 Coordinate A10 contains atom 4 which is already in QM block.
 Coordinate A10 contains atom 4 which is already in QM block.
 Coordinate A11 contains atom 5 which is already in QM block.
 Coordinate A11 contains atom 4 which is already in QM block.
 Coordinate A11 contains atom 4 which is already in QM block.
 Coordinate A12 contains atom 6 which is already in QM block.
 Coordinate A12 contains atom 4 which is already in QM block.
 Coordinate A12 contains atom 4 which is already in QM block.
 Coordinate A13 contains atom 3 which is already in QM block.
 Coordinate A13 contains atom 5 which is already in QM block.
 Coordinate A13 contains atom 5 which is already in QM block.
 Coordinate A14 contains atom 3 which is already in QM block.
 Coordinate A14 contains atom 5 which is already in QM block.
 Coordinate A14 contains atom 5 which is already in QM block.
 Coordinate A15 contains atom 4 which is already in QM block.
 Coordinate A15 contains atom 5 which is already in QM block.
 Coordinate A15 contains atom 5 which is already in QM block.
 Coordinate A16 contains atom 1 which is already in QM block.
 Coordinate A16 contains atom 6 which is already in QM block.
 Coordinate A16 contains atom 6 which is already in QM block.
 Coordinate A17 contains atom 2 which is already in QM block.
 Coordinate A17 contains atom 7 which is already in QM block.
 Coordinate A17 contains atom 7 which is already in QM block.
 Coordinate A18 contains atom 1 which is already in QM block.
 Coordinate A18 contains atom 8 which is already in QM block.
 Coordinate A18 contains atom 8 which is already in QM block.
 Coordinate A19 contains atom 1 which is already in QM block.
 Coordinate A19 contains atom 8 which is already in QM block.
 Coordinate A19 contains atom 8 which is already in QM block.
 Coordinate A20 contains atom 9 which is already in QM block.
 Coordinate A20 contains atom 8 which is already in QM block.
 Coordinate A20 contains atom 8 which is already in QM block.
 Coordinate A21 contains atom 7 which is already in QM block.
 Coordinate A21 contains atom 10 which is already in QM block.
 Coordinate A21 contains atom 10 which is already in QM block.
 Coordinate A22 contains atom 7 which is already in QM block.
 Coordinate A22 contains atom 10 which is already in QM block.
 Coordinate A22 contains atom 10 which is already in QM block.
 Coordinate A23 contains atom 8 which is already in QM block.
 Coordinate A23 contains atom 10 which is already in QM block.
 Coordinate A23 contains atom 10 which is already in QM block.
 Coordinate A24 contains atom 18 which is already in QM block.
 Coordinate A24 contains atom 13 which is already in QM block.
 Coordinate A24 contains atom 13 which is already in QM block.
 Coordinate A25 contains atom 18 which is already in QM block.
 Coordinate A25 contains atom 13 which is already in QM block.
 Coordinate A25 contains atom 13 which is already in QM block.
 Coordinate A26 contains atom 19 which is already in QM block.
 Coordinate A26 contains atom 13 which is already in QM block.
 Coordinate A26 contains atom 13 which is already in QM block.
 Coordinate A27 contains atom 15 which is already in QM block.
 Coordinate A27 contains atom 14 which is already in QM block.
 Coordinate A27 contains atom 14 which is already in QM block.
 Coordinate A28 contains atom 15 which is already in QM block.
 Coordinate A28 contains atom 14 which is already in QM block.
 Coordinate A28 contains atom 14 which is already in QM block.
 Coordinate A29 contains atom 20 which is already in QM block.
 Coordinate A29 contains atom 14 which is already in QM block.
 Coordinate A29 contains atom 14 which is already in QM block.
 Coordinate A30 contains atom 14 which is already in QM block.
 Coordinate A30 contains atom 15 which is already in QM block.
 Coordinate A30 contains atom 15 which is already in QM block.
 Coordinate A31 contains atom 14 which is already in QM block.
 Coordinate A31 contains atom 15 which is already in QM block.
 Coordinate A31 contains atom 15 which is already in QM block.
 Coordinate A32 contains atom 16 which is already in QM block.
 Coordinate A32 contains atom 15 which is already in QM block.
 Coordinate A32 contains atom 15 which is already in QM block.
 Coordinate A33 contains atom 15 which is already in QM block.
 Coordinate A33 contains atom 16 which is already in QM block.
 Coordinate A33 contains atom 16 which is already in QM block.
 Coordinate A34 contains atom 15 which is already in QM block.
 Coordinate A34 contains atom 16 which is already in QM block.
 Coordinate A34 contains atom 16 which is already in QM block.
 Coordinate A35 contains atom 17 which is already in QM block.
 Coordinate A35 contains atom 16 which is already in QM block.
 Coordinate A35 contains atom 16 which is already in QM block.
 Coordinate A36 contains atom 13 which is already in QM block.
 Coordinate A36 contains atom 18 which is already in QM block.
 Coordinate A36 contains atom 18 which is already in QM block.
 Coordinate A37 contains atom 13 which is already in QM block.
 Coordinate A37 contains atom 19 which is already in QM block.
 Coordinate A37 contains atom 19 which is already in QM block.
 Coordinate A38 contains atom 13 which is already in QM block.
 Coordinate A38 contains atom 19 which is already in QM block.
 Coordinate A38 contains atom 19 which is already in QM block.
 Coordinate A39 contains atom 16 which is already in QM block.
 Coordinate A39 contains atom 19 which is already in QM block.
 Coordinate A39 contains atom 19 which is already in QM block.
 Coordinate A40 contains atom 12 which is already in QM block.
 Coordinate A40 contains atom 20 which is already in QM block.
 Coordinate A40 contains atom 20 which is already in QM block.
 Coordinate A41 contains atom 12 which is already in QM block.
 Coordinate A41 contains atom 20 which is already in QM block.
 Coordinate A41 contains atom 20 which is already in QM block.
 Coordinate A42 contains atom 13 which is already in QM block.
 Coordinate A42 contains atom 20 which is already in QM block.
 Coordinate A42 contains atom 20 which is already in QM block.
 Coordinate A43 contains atom 4 which is already in QM block.
 Coordinate A43 contains atom 22 which is already in QM block.
 Coordinate A43 contains atom 22 which is already in QM block.
 Coordinate A44 contains atom 4 which is already in QM block.
 Coordinate A44 contains atom 22 which is already in QM block.
 Coordinate A44 contains atom 22 which is already in QM block.
 Coordinate A45 contains atom 23 which is already in QM block.
 Coordinate A45 contains atom 22 which is already in QM block.
 Coordinate A45 contains atom 22 which is already in QM block.
 Coordinate A46 contains atom 3 which is already in QM block.
 Coordinate A46 contains atom 25 which is already in QM block.
 Coordinate A46 contains atom 25 which is already in QM block.
 Coordinate A47 contains atom 14 which is already in QM block.
 Coordinate A47 contains atom 26 which is already in QM block.
 Coordinate A47 contains atom 26 which is already in QM block.
 Coordinate A48 contains atom 14 which is already in QM block.
 Coordinate A48 contains atom 26 which is already in QM block.
 Coordinate A48 contains atom 26 which is already in QM block.
 Coordinate A49 contains atom 27 which is already in QM block.
 Coordinate A49 contains atom 26 which is already in QM block.
 Coordinate A49 contains atom 26 which is already in QM block.
 Coordinate L50 contains atom 5 which is already in QM block.
 Coordinate L50 contains atom 12 which is already in QM block.
 Coordinate L50 contains atom 12 which is already in QM block.
 Coordinate L50 contains atom 24 which is already in QM block.
 Coordinate L51 contains atom 18 which is already in QM block.
 Coordinate L51 contains atom 24 which is already in QM block.
 Coordinate L51 contains atom 24 which is already in QM block.
 Coordinate L51 contains atom 12 which is already in QM block.
 Coordinate L52 contains atom 25 which is already in QM block.
 Coordinate L52 contains atom 27 which is already in QM block.
 Coordinate L52 contains atom 27 which is already in QM block.
 Coordinate L52 contains atom 12 which is already in QM block.
 Coordinate L53 contains atom 5 which is already in QM block.
 Coordinate L53 contains atom 12 which is already in QM block.
 Coordinate L53 contains atom 12 which is already in QM block.
 Coordinate L53 contains atom 24 which is already in QM block.
 Coordinate L54 contains atom 18 which is already in QM block.
 Coordinate L54 contains atom 24 which is already in QM block.
 Coordinate L54 contains atom 24 which is already in QM block.
 Coordinate L54 contains atom 12 which is already in QM block.
 Coordinate L55 contains atom 25 which is already in QM block.
 Coordinate L55 contains atom 27 which is already in QM block.
 Coordinate L55 contains atom 27 which is already in QM block.
 Coordinate L55 contains atom 12 which is already in QM block.
 Coordinate D1 contains atom 6 which is already in QM block.
 Coordinate D1 contains atom 1 which is already in QM block.
 Coordinate D1 contains atom 2 which is already in QM block.
 Coordinate D1 contains atom 3 which is already in QM block.
 Coordinate D2 contains atom 6 which is already in QM block.
 Coordinate D2 contains atom 1 which is already in QM block.
 Coordinate D2 contains atom 2 which is already in QM block.
 Coordinate D2 contains atom 7 which is already in QM block.
 Coordinate D3 contains atom 8 which is already in QM block.
 Coordinate D3 contains atom 1 which is already in QM block.
 Coordinate D3 contains atom 2 which is already in QM block.
 Coordinate D3 contains atom 3 which is already in QM block.
 Coordinate D4 contains atom 8 which is already in QM block.
 Coordinate D4 contains atom 1 which is already in QM block.
 Coordinate D4 contains atom 2 which is already in QM block.
 Coordinate D4 contains atom 7 which is already in QM block.
 Coordinate D5 contains atom 2 which is already in QM block.
 Coordinate D5 contains atom 1 which is already in QM block.
 Coordinate D5 contains atom 6 which is already in QM block.
 Coordinate D5 contains atom 4 which is already in QM block.
 Coordinate D6 contains atom 8 which is already in QM block.
 Coordinate D6 contains atom 1 which is already in QM block.
 Coordinate D6 contains atom 6 which is already in QM block.
 Coordinate D6 contains atom 4 which is already in QM block.
 Coordinate D7 contains atom 2 which is already in QM block.
 Coordinate D7 contains atom 1 which is already in QM block.
 Coordinate D7 contains atom 8 which is already in QM block.
 Coordinate D7 contains atom 9 which is already in QM block.
 Coordinate D8 contains atom 2 which is already in QM block.
 Coordinate D8 contains atom 1 which is already in QM block.
 Coordinate D8 contains atom 8 which is already in QM block.
 Coordinate D8 contains atom 10 which is already in QM block.
 Coordinate D9 contains atom 6 which is already in QM block.
 Coordinate D9 contains atom 1 which is already in QM block.
 Coordinate D9 contains atom 8 which is already in QM block.
 Coordinate D9 contains atom 9 which is already in QM block.
 Coordinate D10 contains atom 6 which is already in QM block.
 Coordinate D10 contains atom 1 which is already in QM block.
 Coordinate D10 contains atom 8 which is already in QM block.
 Coordinate D10 contains atom 10 which is already in QM block.
 Coordinate D11 contains atom 1 which is already in QM block.
 Coordinate D11 contains atom 2 which is already in QM block.
 Coordinate D11 contains atom 3 which is already in QM block.
 Coordinate D11 contains atom 5 which is already in QM block.
 Coordinate D12 contains atom 1 which is already in QM block.
 Coordinate D12 contains atom 2 which is already in QM block.
 Coordinate D12 contains atom 3 which is already in QM block.
 Coordinate D12 contains atom 25 which is already in QM block.
 Coordinate D13 contains atom 7 which is already in QM block.
 Coordinate D13 contains atom 2 which is already in QM block.
 Coordinate D13 contains atom 3 which is already in QM block.
 Coordinate D13 contains atom 5 which is already in QM block.
 Coordinate D14 contains atom 7 which is already in QM block.
 Coordinate D14 contains atom 2 which is already in QM block.
 Coordinate D14 contains atom 3 which is already in QM block.
 Coordinate D14 contains atom 25 which is already in QM block.
 Coordinate D15 contains atom 1 which is already in QM block.
 Coordinate D15 contains atom 2 which is already in QM block.
 Coordinate D15 contains atom 7 which is already in QM block.
 Coordinate D15 contains atom 10 which is already in QM block.
 Coordinate D16 contains atom 3 which is already in QM block.
 Coordinate D16 contains atom 2 which is already in QM block.
 Coordinate D16 contains atom 7 which is already in QM block.
 Coordinate D16 contains atom 10 which is already in QM block.
 Coordinate D17 contains atom 2 which is already in QM block.
 Coordinate D17 contains atom 3 which is already in QM block.
 Coordinate D17 contains atom 5 which is already in QM block.
 Coordinate D17 contains atom 4 which is already in QM block.
 Coordinate D18 contains atom 2 which is already in QM block.
 Coordinate D18 contains atom 3 which is already in QM block.
 Coordinate D18 contains atom 5 which is already in QM block.
 Coordinate D18 contains atom 12 which is already in QM block.
 Coordinate D19 contains atom 25 which is already in QM block.
 Coordinate D19 contains atom 3 which is already in QM block.
 Coordinate D19 contains atom 5 which is already in QM block.
 Coordinate D19 contains atom 4 which is already in QM block.
 Coordinate D20 contains atom 25 which is already in QM block.
 Coordinate D20 contains atom 3 which is already in QM block.
 Coordinate D20 contains atom 5 which is already in QM block.
 Coordinate D20 contains atom 12 which is already in QM block.
 Coordinate D21 contains atom 2 which is already in QM block.
 Coordinate D21 contains atom 3 which is already in QM block.
 Coordinate D21 contains atom 25 which is already in QM block.
 Coordinate D21 contains atom 27 which is already in QM block.
 Coordinate D22 contains atom 5 which is already in QM block.
 Coordinate D22 contains atom 3 which is already in QM block.
 Coordinate D22 contains atom 25 which is already in QM block.
 Coordinate D22 contains atom 27 which is already in QM block.
 Coordinate D23 contains atom 6 which is already in QM block.
 Coordinate D23 contains atom 4 which is already in QM block.
 Coordinate D23 contains atom 5 which is already in QM block.
 Coordinate D23 contains atom 3 which is already in QM block.
 Coordinate D24 contains atom 6 which is already in QM block.
 Coordinate D24 contains atom 4 which is already in QM block.
 Coordinate D24 contains atom 5 which is already in QM block.
 Coordinate D24 contains atom 12 which is already in QM block.
 Coordinate D25 contains atom 22 which is already in QM block.
 Coordinate D25 contains atom 4 which is already in QM block.
 Coordinate D25 contains atom 5 which is already in QM block.
 Coordinate D25 contains atom 3 which is already in QM block.
 Coordinate D26 contains atom 22 which is already in QM block.
 Coordinate D26 contains atom 4 which is already in QM block.
 Coordinate D26 contains atom 5 which is already in QM block.
 Coordinate D26 contains atom 12 which is already in QM block.
 Coordinate D27 contains atom 5 which is already in QM block.
 Coordinate D27 contains atom 4 which is already in QM block.
 Coordinate D27 contains atom 6 which is already in QM block.
 Coordinate D27 contains atom 1 which is already in QM block.
 Coordinate D28 contains atom 22 which is already in QM block.
 Coordinate D28 contains atom 4 which is already in QM block.
 Coordinate D28 contains atom 6 which is already in QM block.
 Coordinate D28 contains atom 1 which is already in QM block.
 Coordinate D29 contains atom 5 which is already in QM block.
 Coordinate D29 contains atom 4 which is already in QM block.
 Coordinate D29 contains atom 22 which is already in QM block.
 Coordinate D29 contains atom 23 which is already in QM block.
 Coordinate D30 contains atom 5 which is already in QM block.
 Coordinate D30 contains atom 4 which is already in QM block.
 Coordinate D30 contains atom 22 which is already in QM block.
 Coordinate D30 contains atom 24 which is already in QM block.
 Coordinate D31 contains atom 6 which is already in QM block.
 Coordinate D31 contains atom 4 which is already in QM block.
 Coordinate D31 contains atom 22 which is already in QM block.
 Coordinate D31 contains atom 23 which is already in QM block.
 Coordinate D32 contains atom 6 which is already in QM block.
 Coordinate D32 contains atom 4 which is already in QM block.
 Coordinate D32 contains atom 22 which is already in QM block.
 Coordinate D32 contains atom 24 which is already in QM block.
 Coordinate D33 contains atom 3 which is already in QM block.
 Coordinate D33 contains atom 5 which is already in QM block.
 Coordinate D33 contains atom 20 which is already in QM block.
 Coordinate D33 contains atom 13 which is already in QM block.
 Coordinate D34 contains atom 3 which is already in QM block.
 Coordinate D34 contains atom 5 which is already in QM block.
 Coordinate D34 contains atom 20 which is already in QM block.
 Coordinate D34 contains atom 14 which is already in QM block.
 Coordinate D35 contains atom 4 which is already in QM block.
 Coordinate D35 contains atom 5 which is already in QM block.
 Coordinate D35 contains atom 20 which is already in QM block.
 Coordinate D35 contains atom 13 which is already in QM block.
 Coordinate D36 contains atom 4 which is already in QM block.
 Coordinate D36 contains atom 5 which is already in QM block.
 Coordinate D36 contains atom 20 which is already in QM block.
 Coordinate D36 contains atom 14 which is already in QM block.
 Coordinate D37 contains atom 2 which is already in QM block.
 Coordinate D37 contains atom 7 which is already in QM block.
 Coordinate D37 contains atom 10 which is already in QM block.
 Coordinate D37 contains atom 8 which is already in QM block.
 Coordinate D38 contains atom 2 which is already in QM block.
 Coordinate D38 contains atom 7 which is already in QM block.
 Coordinate D38 contains atom 10 which is already in QM block.
 Coordinate D38 contains atom 11 which is already in QM block.
 Coordinate D39 contains atom 1 which is already in QM block.
 Coordinate D39 contains atom 8 which is already in QM block.
 Coordinate D39 contains atom 10 which is already in QM block.
 Coordinate D39 contains atom 7 which is already in QM block.
 Coordinate D40 contains atom 1 which is already in QM block.
 Coordinate D40 contains atom 8 which is already in QM block.
 Coordinate D40 contains atom 10 which is already in QM block.
 Coordinate D40 contains atom 11 which is already in QM block.
 Coordinate D41 contains atom 9 which is already in QM block.
 Coordinate D41 contains atom 8 which is already in QM block.
 Coordinate D41 contains atom 10 which is already in QM block.
 Coordinate D41 contains atom 7 which is already in QM block.
 Coordinate D42 contains atom 9 which is already in QM block.
 Coordinate D42 contains atom 8 which is already in QM block.
 Coordinate D42 contains atom 10 which is already in QM block.
 Coordinate D42 contains atom 11 which is already in QM block.
 Coordinate D43 contains atom 19 which is already in QM block.
 Coordinate D43 contains atom 13 which is already in QM block.
 Coordinate D43 contains atom 18 which is already in QM block.
 Coordinate D43 contains atom 24 which is already in QM block.
 Coordinate D44 contains atom 20 which is already in QM block.
 Coordinate D44 contains atom 13 which is already in QM block.
 Coordinate D44 contains atom 18 which is already in QM block.
 Coordinate D44 contains atom 24 which is already in QM block.
 Coordinate D45 contains atom 18 which is already in QM block.
 Coordinate D45 contains atom 13 which is already in QM block.
 Coordinate D45 contains atom 19 which is already in QM block.
 Coordinate D45 contains atom 16 which is already in QM block.
 Coordinate D46 contains atom 18 which is already in QM block.
 Coordinate D46 contains atom 13 which is already in QM block.
 Coordinate D46 contains atom 19 which is already in QM block.
 Coordinate D46 contains atom 21 which is already in QM block.
 Coordinate D47 contains atom 20 which is already in QM block.
 Coordinate D47 contains atom 13 which is already in QM block.
 Coordinate D47 contains atom 19 which is already in QM block.
 Coordinate D47 contains atom 16 which is already in QM block.
 Coordinate D48 contains atom 20 which is already in QM block.
 Coordinate D48 contains atom 13 which is already in QM block.
 Coordinate D48 contains atom 19 which is already in QM block.
 Coordinate D48 contains atom 21 which is already in QM block.
 Coordinate D49 contains atom 18 which is already in QM block.
 Coordinate D49 contains atom 13 which is already in QM block.
 Coordinate D49 contains atom 20 which is already in QM block.
 Coordinate D49 contains atom 12 which is already in QM block.
 Coordinate D50 contains atom 18 which is already in QM block.
 Coordinate D50 contains atom 13 which is already in QM block.
 Coordinate D50 contains atom 20 which is already in QM block.
 Coordinate D50 contains atom 14 which is already in QM block.
 Coordinate D51 contains atom 19 which is already in QM block.
 Coordinate D51 contains atom 13 which is already in QM block.
 Coordinate D51 contains atom 20 which is already in QM block.
 Coordinate D51 contains atom 12 which is already in QM block.
 Coordinate D52 contains atom 19 which is already in QM block.
 Coordinate D52 contains atom 13 which is already in QM block.
 Coordinate D52 contains atom 20 which is already in QM block.
 Coordinate D52 contains atom 14 which is already in QM block.
 Coordinate D53 contains atom 20 which is already in QM block.
 Coordinate D53 contains atom 14 which is already in QM block.
 Coordinate D53 contains atom 15 which is already in QM block.
 Coordinate D53 contains atom 16 which is already in QM block.
 Coordinate D54 contains atom 20 which is already in QM block.
 Coordinate D54 contains atom 14 which is already in QM block.
 Coordinate D54 contains atom 15 which is already in QM block.
 Coordinate D54 contains atom 29 which is already in QM block.
 Coordinate D55 contains atom 26 which is already in QM block.
 Coordinate D55 contains atom 14 which is already in QM block.
 Coordinate D55 contains atom 15 which is already in QM block.
 Coordinate D55 contains atom 16 which is already in QM block.
 Coordinate D56 contains atom 26 which is already in QM block.
 Coordinate D56 contains atom 14 which is already in QM block.
 Coordinate D56 contains atom 15 which is already in QM block.
 Coordinate D56 contains atom 29 which is already in QM block.
 Coordinate D57 contains atom 15 which is already in QM block.
 Coordinate D57 contains atom 14 which is already in QM block.
 Coordinate D57 contains atom 20 which is already in QM block.
 Coordinate D57 contains atom 12 which is already in QM block.
 Coordinate D58 contains atom 15 which is already in QM block.
 Coordinate D58 contains atom 14 which is already in QM block.
 Coordinate D58 contains atom 20 which is already in QM block.
 Coordinate D58 contains atom 13 which is already in QM block.
 Coordinate D59 contains atom 26 which is already in QM block.
 Coordinate D59 contains atom 14 which is already in QM block.
 Coordinate D59 contains atom 20 which is already in QM block.
 Coordinate D59 contains atom 12 which is already in QM block.
 Coordinate D60 contains atom 26 which is already in QM block.
 Coordinate D60 contains atom 14 which is already in QM block.
 Coordinate D60 contains atom 20 which is already in QM block.
 Coordinate D60 contains atom 13 which is already in QM block.
 Coordinate D61 contains atom 15 which is already in QM block.
 Coordinate D61 contains atom 14 which is already in QM block.
 Coordinate D61 contains atom 26 which is already in QM block.
 Coordinate D61 contains atom 27 which is already in QM block.
 Coordinate D62 contains atom 15 which is already in QM block.
 Coordinate D62 contains atom 14 which is already in QM block.
 Coordinate D62 contains atom 26 which is already in QM block.
 Coordinate D62 contains atom 28 which is already in QM block.
 Coordinate D63 contains atom 20 which is already in QM block.
 Coordinate D63 contains atom 14 which is already in QM block.
 Coordinate D63 contains atom 26 which is already in QM block.
 Coordinate D63 contains atom 27 which is already in QM block.
 Coordinate D64 contains atom 20 which is already in QM block.
 Coordinate D64 contains atom 14 which is already in QM block.
 Coordinate D64 contains atom 26 which is already in QM block.
 Coordinate D64 contains atom 28 which is already in QM block.
 Coordinate D65 contains atom 14 which is already in QM block.
 Coordinate D65 contains atom 15 which is already in QM block.
 Coordinate D65 contains atom 16 which is already in QM block.
 Coordinate D65 contains atom 17 which is already in QM block.
 Coordinate D66 contains atom 14 which is already in QM block.
 Coordinate D66 contains atom 15 which is already in QM block.
 Coordinate D66 contains atom 16 which is already in QM block.
 Coordinate D66 contains atom 19 which is already in QM block.
 Coordinate D67 contains atom 29 which is already in QM block.
 Coordinate D67 contains atom 15 which is already in QM block.
 Coordinate D67 contains atom 16 which is already in QM block.
 Coordinate D67 contains atom 17 which is already in QM block.
 Coordinate D68 contains atom 29 which is already in QM block.
 Coordinate D68 contains atom 15 which is already in QM block.
 Coordinate D68 contains atom 16 which is already in QM block.
 Coordinate D68 contains atom 19 which is already in QM block.
 Coordinate D69 contains atom 15 which is already in QM block.
 Coordinate D69 contains atom 16 which is already in QM block.
 Coordinate D69 contains atom 19 which is already in QM block.
 Coordinate D69 contains atom 13 which is already in QM block.
 Coordinate D70 contains atom 15 which is already in QM block.
 Coordinate D70 contains atom 16 which is already in QM block.
 Coordinate D70 contains atom 19 which is already in QM block.
 Coordinate D70 contains atom 21 which is already in QM block.
 Coordinate D71 contains atom 17 which is already in QM block.
 Coordinate D71 contains atom 16 which is already in QM block.
 Coordinate D71 contains atom 19 which is already in QM block.
 Coordinate D71 contains atom 13 which is already in QM block.
 Coordinate D72 contains atom 17 which is already in QM block.
 Coordinate D72 contains atom 16 which is already in QM block.
 Coordinate D72 contains atom 19 which is already in QM block.
 Coordinate D72 contains atom 21 which is already in QM block.
 Coordinate D73 contains atom 13 which is already in QM block.
 Coordinate D73 contains atom 18 which is already in QM block.
 Coordinate D73 contains atom 22 which is already in QM block.
 Coordinate D73 contains atom 4 which is already in QM block.
 Coordinate D74 contains atom 13 which is already in QM block.
 Coordinate D74 contains atom 18 which is already in QM block.
 Coordinate D74 contains atom 22 which is already in QM block.
 Coordinate D74 contains atom 23 which is already in QM block.
 Coordinate D75 contains atom 3 which is already in QM block.
 Coordinate D75 contains atom 25 which is already in QM block.
 Coordinate D75 contains atom 26 which is already in QM block.
 Coordinate D75 contains atom 14 which is already in QM block.
 Coordinate D76 contains atom 3 which is already in QM block.
 Coordinate D76 contains atom 25 which is already in QM block.
 Coordinate D76 contains atom 26 which is already in QM block.
 Coordinate D76 contains atom 28 which is already in QM block.
 Saved connectivity
 I=     1 IAn=  6 IBond, RBType=     2  1.50     6  1.50     8  1.50
 I=     2 IAn=  6 IBond, RBType=     1  1.50     3  1.50     7  1.00
 I=     3 IAn=  6 IBond, RBType=     2  1.50     5  1.00    25  2.00
 I=     4 IAn=  6 IBond, RBType=     5  1.50     6  1.50    22  1.50
 I=     5 IAn=  7 IBond, RBType=     3  1.00     4  1.50    12  1.00
 I=     6 IAn=  7 IBond, RBType=     1  1.50     4  1.50
 I=     7 IAn=  7 IBond, RBType=     2  1.00    10  2.00
 I=     8 IAn=  7 IBond, RBType=     1  1.50     9  1.00    10  1.00
 I=     9 IAn=  1 IBond, RBType=     8  1.00
 I=    10 IAn=  6 IBond, RBType=     7  2.00     8  1.00    11  1.00
 I=    11 IAn=  1 IBond, RBType=    10  1.00
 I=    12 IAn=  1 IBond, RBType=     5  1.00    20  0.10
 I=    13 IAn=  6 IBond, RBType=    18  2.00    19  1.00    20  1.50
 I=    14 IAn=  6 IBond, RBType=    15  1.50    20  1.50    26  1.50
 I=    15 IAn=  6 IBond, RBType=    14  1.50    16  2.00    29  1.00
 I=    16 IAn=  6 IBond, RBType=    15  2.00    17  1.00    19  1.50
 I=    17 IAn=  1 IBond, RBType=    16  1.00
 I=    18 IAn=  8 IBond, RBType=    13  2.00    24  0.10
 I=    19 IAn=  7 IBond, RBType=    13  1.00    16  1.50    21  1.00
 I=    20 IAn=  7 IBond, RBType=    12  0.10    13  1.50    14  1.50
 I=    21 IAn=  1 IBond, RBType=    19  1.00
 I=    22 IAn=  7 IBond, RBType=     4  1.50    23  1.00    24  1.00
 I=    23 IAn=  1 IBond, RBType=    22  1.00
 I=    24 IAn=  1 IBond, RBType=    18  0.10    22  1.00
 I=    25 IAn=  8 IBond, RBType=     3  2.00    27  0.10
 I=    26 IAn=  7 IBond, RBType=    14  1.50    27  1.00    28  1.00
 I=    27 IAn=  1 IBond, RBType=    25  0.10    26  1.00
 I=    28 IAn=  1 IBond, RBType=    26  1.00
 I=    29 IAn=  1 IBond, RBType=    15  1.00
 ITRead=  0  0  0  0  0  0  0  0  0  0  0  0  0  0  0  0  0  0  0  0
 ITRead=  0  0  0  0  0  0  0  0  0
 MicOpt= -1 -1 -1 -1 -1 -1 -1 -1 -1 -1 -1 -1 -1 -1 -1 -1 -1 -1 -1 -1
 MicOpt= -1 -1 -1 -1 -1 -1 -1 -1 -1
 NAtoms=     29 NQM=       29 NQMF=       0 NMMI=      0 NMMIF=      0
                NMic=       0 NMicF=      0.
 No MM parameters found.
 Leave Link  101 at Sat Aug 10 16:34:05 2019, MaxMem=  4294967296 cpu:               5.8 elap:               0.4

 GradGradGradGradGradGradGradGradGradGradGradGradGradGradGradGradGradGrad
 Berny optimization.
 GetPCM: File not found, return IValue=0.
 Optmz: redundant internal coordinate code flag= 1
 Initialization pass.
                           ----------------------------
                           !    Initial Parameters    !
                           ! (Angstroms and Degrees)  !
 --------------------------                            --------------------------
 ! Name  Definition              Value          Derivative Info.                !
 --------------------------------------------------------------------------------
 ! R1    R(1,2)                  1.3995         calculate D2E/DX2 analytically  !
 ! R2    R(1,6)                  1.3487         calculate D2E/DX2 analytically  !
 ! R3    R(1,8)                  1.3721         calculate D2E/DX2 analytically  !
 ! R4    R(2,3)                  1.4309         calculate D2E/DX2 analytically  !
 ! R5    R(2,7)                  1.3854         calculate D2E/DX2 analytically  !
 ! R6    R(3,5)                  1.4082         calculate D2E/DX2 analytically  !
 ! R7    R(3,25)                 1.2407         calculate D2E/DX2 analytically  !
 ! R8    R(4,5)                  1.3756         calculate D2E/DX2 analytically  !
 ! R9    R(4,6)                  1.3264         calculate D2E/DX2 analytically  !
 ! R10   R(4,22)                 1.3496         calculate D2E/DX2 analytically  !
 ! R11   R(5,12)                 1.0339         calculate D2E/DX2 analytically  !
 ! R12   R(7,10)                 1.3061         calculate D2E/DX2 analytically  !
 ! R13   R(8,9)                  1.0085         calculate D2E/DX2 analytically  !
 ! R14   R(8,10)                 1.3871         calculate D2E/DX2 analytically  !
 ! R15   R(10,11)                1.0816         calculate D2E/DX2 analytically  !
 ! R16   R(12,20)                1.8958         calculate D2E/DX2 analytically  !
 ! R17   R(13,18)                1.2349         calculate D2E/DX2 analytically  !
 ! R18   R(13,19)                1.4106         calculate D2E/DX2 analytically  !
 ! R19   R(13,20)                1.3588         calculate D2E/DX2 analytically  !
 ! R20   R(14,15)                1.4446         calculate D2E/DX2 analytically  !
 ! R21   R(14,20)                1.3394         calculate D2E/DX2 analytically  !
 ! R22   R(14,26)                1.3358         calculate D2E/DX2 analytically  !
 ! R23   R(15,16)                1.3559         calculate D2E/DX2 analytically  !
 ! R24   R(15,29)                1.0822         calculate D2E/DX2 analytically  !
 ! R25   R(16,17)                1.0844         calculate D2E/DX2 analytically  !
 ! R26   R(16,19)                1.361          calculate D2E/DX2 analytically  !
 ! R27   R(18,24)                1.9036         calculate D2E/DX2 analytically  !
 ! R28   R(19,21)                1.0103         calculate D2E/DX2 analytically  !
 ! R29   R(22,23)                1.006          calculate D2E/DX2 analytically  !
 ! R30   R(22,24)                1.0221         calculate D2E/DX2 analytically  !
 ! R31   R(25,27)                1.7486         calculate D2E/DX2 analytically  !
 ! R32   R(26,27)                1.0385         calculate D2E/DX2 analytically  !
 ! R33   R(26,28)                1.0069         calculate D2E/DX2 analytically  !
 ! A1    A(2,1,6)              129.3159         calculate D2E/DX2 analytically  !
 ! A2    A(2,1,8)              104.6281         calculate D2E/DX2 analytically  !
 ! A3    A(6,1,8)              126.056          calculate D2E/DX2 analytically  !
 ! A4    A(1,2,3)              117.8533         calculate D2E/DX2 analytically  !
 ! A5    A(1,2,7)              111.1417         calculate D2E/DX2 analytically  !
 ! A6    A(3,2,7)              131.005          calculate D2E/DX2 analytically  !
 ! A7    A(2,3,5)              111.289          calculate D2E/DX2 analytically  !
 ! A8    A(2,3,25)             128.6307         calculate D2E/DX2 analytically  !
 ! A9    A(5,3,25)             120.0803         calculate D2E/DX2 analytically  !
 ! A10   A(5,4,6)              123.4173         calculate D2E/DX2 analytically  !
 ! A11   A(5,4,22)             116.6333         calculate D2E/DX2 analytically  !
 ! A12   A(6,4,22)             119.9493         calculate D2E/DX2 analytically  !
 ! A13   A(3,5,4)              125.8516         calculate D2E/DX2 analytically  !
 ! A14   A(3,5,12)             115.4432         calculate D2E/DX2 analytically  !
 ! A15   A(4,5,12)             118.7052         calculate D2E/DX2 analytically  !
 ! A16   A(1,6,4)              112.2728         calculate D2E/DX2 analytically  !
 ! A17   A(2,7,10)             104.4139         calculate D2E/DX2 analytically  !
 ! A18   A(1,8,9)              125.3544         calculate D2E/DX2 analytically  !
 ! A19   A(1,8,10)             106.8367         calculate D2E/DX2 analytically  !
 ! A20   A(9,8,10)             127.8089         calculate D2E/DX2 analytically  !
 ! A21   A(7,10,8)             112.9797         calculate D2E/DX2 analytically  !
 ! A22   A(7,10,11)            125.6186         calculate D2E/DX2 analytically  !
 ! A23   A(8,10,11)            121.4017         calculate D2E/DX2 analytically  !
 ! A24   A(18,13,19)           118.1643         calculate D2E/DX2 analytically  !
 ! A25   A(18,13,20)           124.6705         calculate D2E/DX2 analytically  !
 ! A26   A(19,13,20)           117.1652         calculate D2E/DX2 analytically  !
 ! A27   A(15,14,20)           121.7135         calculate D2E/DX2 analytically  !
 ! A28   A(15,14,26)           120.5514         calculate D2E/DX2 analytically  !
 ! A29   A(20,14,26)           117.7351         calculate D2E/DX2 analytically  !
 ! A30   A(14,15,16)           117.0174         calculate D2E/DX2 analytically  !
 ! A31   A(14,15,29)           121.6059         calculate D2E/DX2 analytically  !
 ! A32   A(16,15,29)           121.3766         calculate D2E/DX2 analytically  !
 ! A33   A(15,16,17)           123.1343         calculate D2E/DX2 analytically  !
 ! A34   A(15,16,19)           120.2384         calculate D2E/DX2 analytically  !
 ! A35   A(17,16,19)           116.6273         calculate D2E/DX2 analytically  !
 ! A36   A(13,18,24)           118.4671         calculate D2E/DX2 analytically  !
 ! A37   A(13,19,16)           122.623          calculate D2E/DX2 analytically  !
 ! A38   A(13,19,21)           115.5887         calculate D2E/DX2 analytically  !
 ! A39   A(16,19,21)           121.7883         calculate D2E/DX2 analytically  !
 ! A40   A(12,20,13)           116.6694         calculate D2E/DX2 analytically  !
 ! A41   A(12,20,14)           122.0882         calculate D2E/DX2 analytically  !
 ! A42   A(13,20,14)           121.2424         calculate D2E/DX2 analytically  !
 ! A43   A(4,22,23)            116.5675         calculate D2E/DX2 analytically  !
 ! A44   A(4,22,24)            123.1392         calculate D2E/DX2 analytically  !
 ! A45   A(23,22,24)           120.2933         calculate D2E/DX2 analytically  !
 ! A46   A(3,25,27)            125.6572         calculate D2E/DX2 analytically  !
 ! A47   A(14,26,27)           120.6855         calculate D2E/DX2 analytically  !
 ! A48   A(14,26,28)           119.9864         calculate D2E/DX2 analytically  !
 ! A49   A(27,26,28)           119.3281         calculate D2E/DX2 analytically  !
 ! A50   L(5,12,20,24,-1)      182.1216         calculate D2E/DX2 analytically  !
 ! A51   L(18,24,22,12,-1)     179.5937         calculate D2E/DX2 analytically  !
 ! A52   L(25,27,26,12,-1)     180.4322         calculate D2E/DX2 analytically  !
 ! A53   L(5,12,20,24,-2)      180.0            calculate D2E/DX2 analytically  !
 ! A54   L(18,24,22,12,-2)     180.0            calculate D2E/DX2 analytically  !
 ! A55   L(25,27,26,12,-2)     180.0            calculate D2E/DX2 analytically  !
 ! D1    D(6,1,2,3)              0.0            calculate D2E/DX2 analytically  !
 ! D2    D(6,1,2,7)            180.0            calculate D2E/DX2 analytically  !
 ! D3    D(8,1,2,3)            180.0            calculate D2E/DX2 analytically  !
 ! D4    D(8,1,2,7)              0.0            calculate D2E/DX2 analytically  !
 ! D5    D(2,1,6,4)              0.0            calculate D2E/DX2 analytically  !
 ! D6    D(8,1,6,4)            180.0            calculate D2E/DX2 analytically  !
 ! D7    D(2,1,8,9)            180.0            calculate D2E/DX2 analytically  !
 ! D8    D(2,1,8,10)             0.0            calculate D2E/DX2 analytically  !
 ! D9    D(6,1,8,9)              0.0            calculate D2E/DX2 analytically  !
 ! D10   D(6,1,8,10)           180.0            calculate D2E/DX2 analytically  !
 ! D11   D(1,2,3,5)              0.0            calculate D2E/DX2 analytically  !
 ! D12   D(1,2,3,25)           180.0            calculate D2E/DX2 analytically  !
 ! D13   D(7,2,3,5)            180.0            calculate D2E/DX2 analytically  !
 ! D14   D(7,2,3,25)             0.0            calculate D2E/DX2 analytically  !
 ! D15   D(1,2,7,10)             0.0            calculate D2E/DX2 analytically  !
 ! D16   D(3,2,7,10)           180.0            calculate D2E/DX2 analytically  !
 ! D17   D(2,3,5,4)              0.0            calculate D2E/DX2 analytically  !
 ! D18   D(2,3,5,12)           180.0            calculate D2E/DX2 analytically  !
 ! D19   D(25,3,5,4)           180.0            calculate D2E/DX2 analytically  !
 ! D20   D(25,3,5,12)            0.0            calculate D2E/DX2 analytically  !
 ! D21   D(2,3,25,27)          180.0            calculate D2E/DX2 analytically  !
 ! D22   D(5,3,25,27)            0.0            calculate D2E/DX2 analytically  !
 ! D23   D(6,4,5,3)              0.0            calculate D2E/DX2 analytically  !
 ! D24   D(6,4,5,12)           180.0            calculate D2E/DX2 analytically  !
 ! D25   D(22,4,5,3)           180.0            calculate D2E/DX2 analytically  !
 ! D26   D(22,4,5,12)            0.0            calculate D2E/DX2 analytically  !
 ! D27   D(5,4,6,1)              0.0            calculate D2E/DX2 analytically  !
 ! D28   D(22,4,6,1)           180.0            calculate D2E/DX2 analytically  !
 ! D29   D(5,4,22,23)          180.0            calculate D2E/DX2 analytically  !
 ! D30   D(5,4,22,24)            0.0            calculate D2E/DX2 analytically  !
 ! D31   D(6,4,22,23)            0.0            calculate D2E/DX2 analytically  !
 ! D32   D(6,4,22,24)          180.0            calculate D2E/DX2 analytically  !
 ! D33   D(3,5,20,13)          180.0            calculate D2E/DX2 analytically  !
 ! D34   D(3,5,20,14)            0.0            calculate D2E/DX2 analytically  !
 ! D35   D(4,5,20,13)            0.0            calculate D2E/DX2 analytically  !
 ! D36   D(4,5,20,14)          180.0            calculate D2E/DX2 analytically  !
 ! D37   D(2,7,10,8)             0.0            calculate D2E/DX2 analytically  !
 ! D38   D(2,7,10,11)          180.0            calculate D2E/DX2 analytically  !
 ! D39   D(1,8,10,7)             0.0            calculate D2E/DX2 analytically  !
 ! D40   D(1,8,10,11)          180.0            calculate D2E/DX2 analytically  !
 ! D41   D(9,8,10,7)           180.0            calculate D2E/DX2 analytically  !
 ! D42   D(9,8,10,11)            0.0            calculate D2E/DX2 analytically  !
 ! D43   D(19,13,18,24)        180.0            calculate D2E/DX2 analytically  !
 ! D44   D(20,13,18,24)          0.0            calculate D2E/DX2 analytically  !
 ! D45   D(18,13,19,16)        180.0            calculate D2E/DX2 analytically  !
 ! D46   D(18,13,19,21)          0.0            calculate D2E/DX2 analytically  !
 ! D47   D(20,13,19,16)          0.0            calculate D2E/DX2 analytically  !
 ! D48   D(20,13,19,21)        180.0            calculate D2E/DX2 analytically  !
 ! D49   D(18,13,20,12)          0.0            calculate D2E/DX2 analytically  !
 ! D50   D(18,13,20,14)        180.0            calculate D2E/DX2 analytically  !
 ! D51   D(19,13,20,12)        180.0            calculate D2E/DX2 analytically  !
 ! D52   D(19,13,20,14)          0.0            calculate D2E/DX2 analytically  !
 ! D53   D(20,14,15,16)          0.0            calculate D2E/DX2 analytically  !
 ! D54   D(20,14,15,29)        180.0            calculate D2E/DX2 analytically  !
 ! D55   D(26,14,15,16)        180.0            calculate D2E/DX2 analytically  !
 ! D56   D(26,14,15,29)          0.0            calculate D2E/DX2 analytically  !
 ! D57   D(15,14,20,12)        180.0            calculate D2E/DX2 analytically  !
 ! D58   D(15,14,20,13)          0.0            calculate D2E/DX2 analytically  !
 ! D59   D(26,14,20,12)          0.0            calculate D2E/DX2 analytically  !
 ! D60   D(26,14,20,13)        180.0            calculate D2E/DX2 analytically  !
 ! D61   D(15,14,26,27)        180.0            calculate D2E/DX2 analytically  !
 ! D62   D(15,14,26,28)          0.0            calculate D2E/DX2 analytically  !
 ! D63   D(20,14,26,27)          0.0            calculate D2E/DX2 analytically  !
 ! D64   D(20,14,26,28)        180.0            calculate D2E/DX2 analytically  !
 ! D65   D(14,15,16,17)        180.0            calculate D2E/DX2 analytically  !
 ! D66   D(14,15,16,19)          0.0            calculate D2E/DX2 analytically  !
 ! D67   D(29,15,16,17)          0.0            calculate D2E/DX2 analytically  !
 ! D68   D(29,15,16,19)        180.0            calculate D2E/DX2 analytically  !
 ! D69   D(15,16,19,13)          0.0            calculate D2E/DX2 analytically  !
 ! D70   D(15,16,19,21)        180.0            calculate D2E/DX2 analytically  !
 ! D71   D(17,16,19,13)        180.0            calculate D2E/DX2 analytically  !
 ! D72   D(17,16,19,21)          0.0            calculate D2E/DX2 analytically  !
 ! D73   D(13,18,22,4)           0.0            calculate D2E/DX2 analytically  !
 ! D74   D(13,18,22,23)        180.0            calculate D2E/DX2 analytically  !
 ! D75   D(3,25,26,14)           0.0            calculate D2E/DX2 analytically  !
 ! D76   D(3,25,26,28)         180.0            calculate D2E/DX2 analytically  !
 --------------------------------------------------------------------------------
 Maximum allowed force set to 1.00D+20.
 Trust Radius=3.00D-01 FncErr=1.00D-07 GrdErr=1.00D-07 EigMax=2.50D+02 EigMin=1.00D-04
 Number of steps in this run=      2 maximum allowed number of steps=      2.
 GradGradGradGradGradGradGradGradGradGradGradGradGradGradGradGradGradGrad

 Leave Link  103 at Sat Aug 10 16:34:05 2019, MaxMem=  4294967296 cpu:               0.2 elap:               0.0
                          Input orientation:                          
 ---------------------------------------------------------------------
 Center     Atomic      Atomic             Coordinates (Angstroms)
 Number     Number       Type             X           Y           Z
 ---------------------------------------------------------------------
      1          6           0        2.107180   -2.607066    0.000000
      2          6           0        0.728856   -2.849859    0.000000
      3          6           0       -0.148990   -1.719920    0.000000
      4          6           0        1.943834   -0.391690    0.000000
      5          7           0        0.573484   -0.511198    0.000000
      6          7           0        2.767757   -1.431167    0.000000
      7          7           0        0.460919   -4.209084    0.000000
      8          7           0        2.678761   -3.854454    0.000000
      9          1           0        3.669616   -4.042324    0.000000
     10          6           0        1.639186   -4.772738    0.000000
     11          1           0        1.827988   -5.837691    0.000000
     12          1           0        0.000000    0.349051    0.000000
     13          6           0       -0.481444    3.091506    0.000000
     14          6           0       -2.445833    1.799505    0.000000
     15          6           0       -3.283387    2.976478    0.000000
     16          6           0       -2.656349    4.178635    0.000000
     17          1           0       -3.187361    5.124135    0.000000
     18          8           0        0.743832    3.245227    0.000000
     19          7           0       -1.296893    4.242559    0.000000
     20          7           0       -1.109270    1.886471    0.000000
     21          1           0       -0.805598    5.125383    0.000000
     22          7           0        2.441742    0.862735    0.000000
     23          1           0        3.444013    0.948983    0.000000
     24          1           0        1.852426    1.697783    0.000000
     25          8           0       -1.389557   -1.702875    0.000000
     26          7           0       -2.989409    0.579316    0.000000
     27          1           0       -2.389289   -0.268194    0.000000
     28          1           0       -3.990823    0.474520    0.000000
     29          1           0       -4.363128    2.904187    0.000000
 ---------------------------------------------------------------------
                    Distance matrix (angstroms):
                    1          2          3          4          5
     1  C    0.000000
     2  C    1.399545   0.000000
     3  C    2.424321   1.430865   0.000000
     4  C    2.221390   2.742037   2.478731   0.000000
     5  N    2.597092   2.343816   1.408182   1.375551   0.000000
     6  N    1.348740   2.483909   2.931005   1.326409   2.379323
     7  N    2.297093   1.385382   2.562797   4.095306   3.699599
     8  N    1.372108   2.193477   3.542938   3.539894   3.950893
     9  H    2.121597   3.173333   4.469375   4.038001   4.696263
    10  C    2.215661   2.127478   3.537976   4.391627   4.392772
    11  H    3.242667   3.183588   4.567765   5.447233   5.472231
    12  H    3.630267   3.280893   2.074329   2.080189   1.033882
    13  C    6.258969   6.063386   4.822898   4.244364   3.753978
    14  C    6.336229   5.629852   4.202599   4.906171   3.802055
    15  C    7.761068   7.074199   5.646291   6.218392   5.199936
    16  C    8.290775   7.801240   6.409353   6.484563   5.694414
    17  H    9.370359   8.883768   7.488176   7.533491   6.775023
    18  O    6.008998   6.095104   5.044781   3.829774   3.760286
    19  N    7.648861   7.376046   6.071971   5.654960   5.108475
    20  N    5.526068   5.080505   3.732050   3.809391   2.929245
    21  H    8.262871   8.121517   6.876722   6.164209   5.802837
    22  N    3.485893   4.088683   3.658141   1.349628   2.319069
    23  H    3.799027   4.669398   4.475792   2.011950   3.220569
    24  H    4.312380   4.684384   3.960601   2.091471   2.552507
    25  O    3.611749   2.408993   1.240684   3.581997   2.296437
    26  N    6.010678   5.058136   3.654376   5.027896   3.726047
    27  H    5.068388   4.048188   2.669541   4.334882   2.972722
    28  H    6.832409   5.772943   4.424392   5.997539   4.669533
    29  H    8.499341   7.683576   6.256303   7.116219   6.002915
                    6          7          8          9         10
     6  N    0.000000
     7  N    3.610862   0.000000
     8  N    2.424921   2.246015   0.000000
     9  H    2.762515   3.213027   1.008508   0.000000
    10  C    3.527006   1.306147   1.387069   2.157812   0.000000
    11  H    4.505621   2.126320   2.158018   2.571952   1.081560
    12  H    3.290844   4.581380   4.984497   5.722784   5.377700
    13  C    5.568831   7.361159   7.631072   8.253656   8.145146
    14  C    6.133414   6.674755   7.630774   8.457286   7.738330
    15  C    7.486233   8.102600   9.066909   9.879668   9.180527
    16  C    7.803256   8.948251   9.643335  10.373138   9.928681
    17  H    8.856377  10.020924  10.725038  11.447362  11.011069
    18  O    5.095580   7.459678   7.358629   7.852936   8.067802
    19  N    6.979437   8.632507   9.020390   9.659477   9.481357
    20  N    5.102750   6.294544   6.878037   7.615009   7.204101
    21  H    7.467075   9.419997   9.632146  10.201686  10.195576
    22  N    2.316953   5.444907   4.723140   5.056410   5.692333
    23  H    2.474356   5.958566   4.864013   4.996403   5.999624
    24  H    3.260086   6.068556   5.613392   6.020881   6.474034
    25  O    4.166183   3.115340   4.602228   5.573890   4.312464
    26  N    6.098115   5.901994   7.196282   8.105688   7.075901
    27  H    5.286552   4.863569   6.208574   7.138234   6.043139
    28  H    7.022111   6.461745   7.951312   8.892930   7.696150
    29  H    8.345347   8.594769   9.760504  10.619745   9.744894
                   11         12         13         14         15
    11  H    0.000000
    12  H    6.451148   0.000000
    13  C    9.223017   2.784394   0.000000
    14  C    8.751703   2.843574   2.351189   0.000000
    15  C   10.189000   4.205235   2.804303   1.444563   0.000000
    16  C   10.974337   4.660676   2.431473   2.388426   1.355861
    17  H   12.054682   5.741141   3.384312   3.406322   2.149803
    18  O    9.147393   2.990171   1.234881   3.502010   4.036176
    19  N   10.553498   4.103820   1.410631   2.699736   2.355657
    20  N    8.263786   1.895822   1.358777   1.339389   2.432057
    21  H   11.274962   4.843794   2.059546   3.708347   3.279822
    22  N    6.728477   2.495190   3.675927   4.976538   6.102869
    23  H    6.976423   3.495875   4.472093   5.950939   7.026283
    24  H    7.535514   2.291410   2.718347   4.299463   5.292602
    25  O    5.239208   2.478158   4.879627   3.658194   5.048063
    26  N    8.024045   2.998264   3.549787   1.335790   2.415121
    27  H    6.986038   2.467730   3.863607   2.068472   3.365607
    28  H    8.585020   3.992795   4.377711   2.035333   2.600050
    29  H   10.712159   5.056244   3.886201   2.212768   1.082158
                   16         17         18         19         20
    16  C    0.000000
    17  H    1.084410   0.000000
    18  O    3.525972   4.357129   0.000000
    19  N    1.360958   2.085916   2.271394   0.000000
    20  N    2.765406   3.847198   2.297870   2.363547   0.000000
    21  H    2.078848   2.381763   2.436333   1.010321   3.253117
    22  N    6.081589   7.060193   2.925605   5.039901   3.695635
    23  H    6.902541   7.836263   3.544533   5.772680   4.648792
    24  H    5.146230   6.094206   1.903566   4.048962   2.967701
    25  O    6.016388   7.059757   5.388419   5.946156   3.600273
    26  N    3.614696   4.549128   4.587392   4.035339   2.289886
    27  H    4.454841   5.451067   4.707502   4.641144   2.506198
    28  H    3.937168   4.718524   5.485779   4.631995   3.208887
    29  H    2.130097   2.512090   5.118335   3.345600   3.409302
                   21         22         23         24         25
    21  H    0.000000
    22  N    5.358674   0.000000
    23  H    5.958314   1.005975   0.000000
    24  H    4.337457   1.022056   1.758935   0.000000
    25  O    6.853183   4.610988   5.513234   4.698396   0.000000
    26  N    5.043387   5.438541   6.444034   4.969339   2.787099
    27  H    5.621277   4.961639   5.958937   4.675170   1.748649
    28  H    5.637037   6.444269   7.449960   5.969919   3.392290
    29  H    4.194011   7.104490   8.048247   6.331550   5.483352
                   26         27         28         29
    26  N    0.000000
    27  H    1.038469   0.000000
    28  H    1.006882   1.765371   0.000000
    29  H    2.700394   3.736314   2.458026   0.000000
 Stoichiometry    C9H10N8O2
 Framework group  CS[SG(C9H10N8O2)]
 Deg. of freedom    55
 Full point group                 CS      NOp   2
 Largest Abelian subgroup         CS      NOp   2
 Largest concise Abelian subgroup C1      NOp   1
                         Standard orientation:                         
 ---------------------------------------------------------------------
 Center     Atomic      Atomic             Coordinates (Angstroms)
 Number     Number       Type             X           Y           Z
 ---------------------------------------------------------------------
      1          6           0       -2.107180   -2.607066    0.000000
      2          6           0       -0.728856   -2.849859    0.000000
      3          6           0        0.148990   -1.719920    0.000000
      4          6           0       -1.943834   -0.391690    0.000000
      5          7           0       -0.573484   -0.511198    0.000000
      6          7           0       -2.767757   -1.431167    0.000000
      7          7           0       -0.460919   -4.209084    0.000000
      8          7           0       -2.678761   -3.854454    0.000000
      9          1           0       -3.669616   -4.042324    0.000000
     10          6           0       -1.639186   -4.772738    0.000000
     11          1           0       -1.827988   -5.837691    0.000000
     12          1           0        0.000000    0.349051   -0.000000
     13          6           0        0.481444    3.091506   -0.000000
     14          6           0        2.445833    1.799505   -0.000000
     15          6           0        3.283387    2.976478   -0.000000
     16          6           0        2.656349    4.178635   -0.000000
     17          1           0        3.187361    5.124135   -0.000000
     18          8           0       -0.743832    3.245227   -0.000000
     19          7           0        1.296893    4.242559   -0.000000
     20          7           0        1.109270    1.886471   -0.000000
     21          1           0        0.805598    5.125383   -0.000000
     22          7           0       -2.441742    0.862735   -0.000000
     23          1           0       -3.444013    0.948983   -0.000000
     24          1           0       -1.852426    1.697783   -0.000000
     25          8           0        1.389557   -1.702875    0.000000
     26          7           0        2.989409    0.579316   -0.000000
     27          1           0        2.389289   -0.268194    0.000000
     28          1           0        3.990823    0.474520   -0.000000
     29          1           0        4.363128    2.904187   -0.000000
 ---------------------------------------------------------------------
 Rotational constants (GHZ):           0.8839559           0.1990641           0.1624752
 Standard basis: 6-31G(d,p) (6D, 7F)
 There are   249 symmetry adapted cartesian basis functions of A'  symmetry.
 There are    86 symmetry adapted cartesian basis functions of A"  symmetry.
 There are   249 symmetry adapted basis functions of A'  symmetry.
 There are    86 symmetry adapted basis functions of A"  symmetry.
   335 basis functions,   602 primitive gaussians,   335 cartesian basis functions
    68 alpha electrons       68 beta electrons
       nuclear repulsion energy      1387.5314825580 Hartrees.
 NAtoms=   29 NActive=   29 NUniq=   29 SFac= 1.00D+00 NAtFMM=   60 NAOKFM=F Big=F
 Integral buffers will be    131072 words long.
 Raffenetti 2 integral format.
 Two-electron integral symmetry is turned on.
 One-electron integrals computed using PRISM.
 NBasis=   335 RedAO= T EigKep=  8.41D-04  NBF=   249    86
 NBsUse=   335 1.00D-06 EigRej= -1.00D+00 NBFU=   249    86
 ExpMin= 1.61D-01 ExpMax= 5.48D+03 ExpMxC= 8.25D+02 IAcc=3 IRadAn=         5 AccDes= 0.00D+00
 Harris functional with IExCor=  402 and IRadAn=       5 diagonalized for initial guess.
 HarFok:  IExCor=  402 AccDes= 0.00D+00 IRadAn=         5 IDoV= 1 UseB2=F ITyADJ=14
 ICtDFT=  3500011 ScaDFX=  1.000000  1.000000  1.000000  1.000000
 FoFCou: FMM=F IPFlag=           0 FMFlag=      100000 FMFlg1=           0
         NFxFlg=           0 DoJE=T BraDBF=F KetDBF=T FulRan=T
         wScrn=  0.000000 ICntrl=       500 IOpCl=  0 I1Cent=   200000004 NGrid=           0
         NMat0=    1 NMatS0=      1 NMatT0=    0 NMatD0=    1 NMtDS0=    0 NMtDT0=    0
 Petite list used in FoFCou.
 Initial guess orbital symmetries:
       Occupied  (A') (A') (A') (A') (A') (A') (A') (A') (A') (A')
                 (A') (A') (A') (A') (A') (A') (A') (A') (A') (A')
                 (A') (A') (A') (A') (A') (A') (A') (A') (A') (A')
                 (A') (A') (A') (A') (A') (A') (A') (A') (A') (A')
                 (A') (A') (A') (A') (A') (A') (A') (A') (A") (A')
                 (A') (A") (A') (A") (A") (A") (A") (A') (A') (A')
                 (A") (A') (A') (A") (A") (A") (A") (A")
       Virtual   (A") (A") (A") (A") (A") (A') (A") (A') (A') (A')
                 (A") (A') (A') (A') (A') (A') (A') (A') (A') (A')
                 (A') (A') (A') (A') (A') (A') (A') (A') (A') (A')
                 (A') (A') (A') (A') (A') (A') (A') (A') (A") (A")
                 (A') (A') (A') (A") (A') (A') (A') (A') (A') (A")
                 (A') (A") (A") (A') (A') (A') (A') (A") (A') (A')
                 (A") (A') (A') (A") (A") (A") (A") (A') (A') (A")
                 (A') (A') (A") (A') (A") (A') (A') (A') (A') (A')
                 (A') (A") (A') (A') (A') (A") (A') (A') (A') (A")
                 (A') (A") (A') (A') (A') (A') (A') (A') (A') (A')
                 (A") (A') (A") (A') (A') (A') (A") (A") (A') (A")
                 (A') (A") (A') (A") (A') (A") (A') (A") (A") (A')
                 (A") (A") (A') (A") (A") (A') (A") (A') (A") (A')
                 (A') (A') (A') (A') (A') (A') (A') (A') (A') (A")
                 (A') (A") (A') (A') (A') (A') (A") (A') (A') (A')
                 (A') (A") (A") (A') (A') (A') (A") (A') (A") (A')
                 (A') (A") (A') (A') (A') (A') (A') (A") (A') (A')
                 (A') (A") (A') (A") (A') (A") (A') (A") (A") (A')
                 (A") (A") (A') (A") (A') (A') (A") (A') (A') (A')
                 (A') (A') (A") (A') (A") (A') (A") (A') (A') (A")
                 (A') (A") (A") (A") (A') (A') (A") (A") (A') (A')
                 (A') (A') (A') (A") (A') (A") (A') (A") (A') (A")
                 (A') (A") (A') (A') (A') (A') (A') (A') (A') (A')
                 (A') (A') (A') (A') (A') (A') (A') (A') (A') (A')
                 (A') (A') (A') (A') (A') (A') (A') (A') (A') (A')
                 (A') (A') (A') (A') (A') (A') (A') (A') (A') (A')
                 (A') (A') (A') (A') (A') (A') (A')
 The electronic state of the initial guess is 1-A'.
 Requested convergence on RMS density matrix=1.00D-08 within 128 cycles.
 Requested convergence on MAX density matrix=1.00D-06.
 Requested convergence on             energy=1.00D-06.
 No special actions if energy rises.
 Integral accuracy reduced to 1.0D-05 until final iterations.
 Initial convergence to 1.0D-05 achieved.  Increase integral accuracy.
 SCF Done:  E(RB3LYP) =  -937.554984097     A.U. after   15 cycles
            NFock= 15  Conv=0.52D-08     -V/T= 2.0092
 DoSCS=F DFT=T ScalE2(SS,OS)=  1.000000  1.000000
 Range of M.O.s used for correlation:     1   335
 NBasis=   335 NAE=    68 NBE=    68 NFC=     0 NFV=     0
 NROrb=    335 NOA=    68 NOB=    68 NVA=   267 NVB=   267

 **** Warning!!: The largest alpha MO coefficient is  0.11416549D+02

 Symmetrizing basis deriv contribution to polar:
 IMax=3 JMax=2 DiffMx= 0.00D+00
 G2DrvN: will do    30 centers at a time, making    1 passes.
 Calling FoFCou, ICntrl=  3107 FMM=F I1Cent=   0 AccDes= 0.00D+00.
 End of G2Drv F.D. properties file   721 does not exist.
 End of G2Drv F.D. properties file   722 does not exist.
 End of G2Drv F.D. properties file   788 does not exist.
          IDoAtm=11111111111111111111111111111
          Differentiating once with respect to electric field.
                with respect to dipole field.
          Differentiating once with respect to nuclear coordinates.
 Keep R1 ints in memory in symmetry-blocked form, NReq=2421006604.
          There are    90 degrees of freedom in the 1st order CPHF.  IDoFFX=6 NUNeed=     3.
[...]
 ,0.,0.03802026,-0.00119820,-0.00150206,0.,0.00125910,-0.00044350,0.,-0
 .00451309,-0.00088138,0.,-0.00330257,-0.00584858,0.,0.00307590,0.00085
 346,0.,0.00021019,0.00332091,0.,0.00005335,0.00053741,0.,0.00004357,0.
 00007734,0.,0.00002293,-0.00007904,0.,0.00027985,0.00006550,0.,0.00001
 286,0.00001548,0.,-0.00199289,0.00073737,0.,-0.14332445,-0.01432768,0.
 ,-0.04815960,0.03106985,0.,-0.03602525,-0.06328611,0.,-0.34900782,0.01
 205764,0.,-0.01974052,-0.00239853,0.,-0.07595481,0.06629668,0.,0.77350
 499,-0.00006758,0.00070014,0.,0.00015452,-0.00023076,0.,0.00008120,0.0
 0118367,0.,-0.00069244,0.00106776,0.,0.00131531,-0.00177485,0.,0.00071
 123,-0.00117771,0.,0.00004195,-0.00016170,0.,0.00018411,-0.00031153,0.
 ,-0.00007109,0.00004176,0.,0.00000655,-0.00018689,0.,0.00002162,-0.000
 03078,0.,-0.00231874,0.00248933,0.,0.03831160,-0.18884893,0.,0.0248924
 4,-0.00385310,0.,-0.04299687,0.01205780,0.,-0.03689579,-0.14999549,0.,
 0.03468519,0.00679483,0.,0.03118190,0.00620132,0.,0.13013456,0.7585399
 5,0.,0.,0.00000638,0.,0.,0.00002184,0.,0.,0.00001563,0.,0.,-0.00006625
 ,0.,0.,-0.00031584,0.,0.,0.00006110,0.,0.,0.00000945,0.,0.,0.00000528,
 0.,0.,-0.00000831,0.,0.,-0.00000486,0.,0.,-0.00000272,0.,0.,0.00081528
 ,0.,0.,-0.05965743,0.,0.,-0.00502296,0.,0.,0.00970020,0.,0.,-0.0406875
 8,0.,0.,0.00338706,0.,0.,0.01866210,0.,0.,0.05894362,-0.00190528,-0.00
 331402,0.,0.00326850,0.00000844,0.,-0.01582916,-0.00390348,0.,0.001477
 21,-0.00502395,0.,0.00004206,0.01575423,0.,-0.00115940,0.00512666,0.,-
 0.00013856,0.00107255,0.,-0.00002868,0.00045138,0.,0.00008539,-0.00014
 142,0.,0.00034118,0.00020361,0.,-0.00002419,0.00005035,0.,-0.00414743,
 -0.00883364,0.,-0.14930083,-0.06762536,0.,-0.35978250,0.00578588,0.,-0
 .03642091,0.03631081,0.,-0.03420690,-0.01713641,0.,0.00114880,-0.00011
 003,0.,-0.05653597,-0.06779804,0.,0.04653624,-0.00756146,0.,0.65214117
 ,-0.00146338,0.00007197,0.,0.00100139,-0.00117208,0.,-0.00066241,0.002
 85623,0.,-0.00833786,-0.00998180,0.,0.01456660,-0.00904296,0.,0.002696
 05,0.00194733,0.,0.00021987,0.00022028,0.,0.00038148,-0.00063612,0.,-0
 .00010875,-0.00001103,0.,0.00042516,-0.00027568,0.,0.00007421,-0.00004
 712,0.,-0.00770954,-0.00061917,0.,-0.05443130,-0.26434368,0.,-0.006198
 83,-0.12714251,0.,0.02686531,0.02813463,0.,-0.02818134,-0.01185488,0.,
 0.00090446,0.00038141,0.,-0.04953099,-0.00989840,0.,0.01371125,-0.0639
 5397,0.,0.15036940,0.48445833,0.,0.,0.00000506,0.,0.,-0.00038326,0.,0.
 ,-0.00056871,0.,0.,-0.00038166,0.,0.,0.00549792,0.,0.,-0.00017048,0.,0
 .,0.00001937,0.,0.,0.00003798,0.,0.,-0.00003351,0.,0.,0.00002537,0.,0.
 ,-0.00000001,0.,0.,-0.00815659,0.,0.,-0.06255836,0.,0.,-0.05792643,0.,
 0.,0.01566780,0.,0.,-0.00137573,0.,0.,-0.00195550,0.,0.,0.01602310,0.,
 0.,0.01462065,0.,0.,0.06463660,0.00009472,0.00004971,0.,-0.00008750,0.
 00005715,0.,0.00021814,-0.00010144,0.,0.00039644,0.00044164,0.,-0.0004
 8674,0.00022434,0.,-0.00010302,-0.00015054,0.,-0.00001133,-0.00002567,
 0.,-0.00001807,0.00002059,0.,0.00000516,0.00000390,0.,-0.00002041,0.00
 001160,0.,-0.00000284,0.00000136,0.,0.00059001,-0.00047260,0.,0.021217
 25,0.01630934,0.,-0.00107341,-0.00063914,0.,-0.00532996,0.00368467,0.,
 -0.01086491,-0.03224600,0.,0.00073762,0.00026934,0.,-0.00228908,-0.003
 77244,0.,-0.15729897,-0.15987859,0.,-0.00253062,0.00574873,0.,0.157032
 86,0.00001347,-0.00004926,0.,-0.00007167,0.00000662,0.,0.00029864,0.00
 004563,0.,-0.00025640,-0.00050756,0.,0.00026869,-0.00020506,0.,-0.0000
 0996,0.00019211,0.,-0.00000434,0.00001237,0.,-0.00002694,0.00002322,0.
 ,0.00001031,-0.00000572,0.,0.00001513,0.00002347,0.,-0.00000049,0.0000
 0332,0.,-0.00041075,0.00028192,0.,-0.02074366,-0.02048168,0.,0.0039735
 6,-0.00185556,0.,0.00219102,0.00462683,0.,0.00074366,0.00643159,0.,0.0
 0030961,0.00086494,0.,-0.00067040,0.00447445,0.,-0.16071658,-0.3689892
 0,0.,0.00340089,-0.00483347,0.,0.17138393,0.37848149,0.,0.,0.00000616,
 0.,0.,-0.00000257,0.,0.,0.00003090,0.,0.,0.00005286,0.,0.,-0.00006748,
 0.,0.,-0.00002153,0.,0.,-0.00001313,0.,0.,-0.00001040,0.,0.,0.00001106
 ,0.,0.,0.00000148,0.,0.,0.00000312,0.,0.,0.00011357,0.,0.,-0.00100543,
 0.,0.,-0.00014986,0.,0.,0.00472671,0.,0.,-0.00741588,0.,0.,-0.00219943
 ,0.,0.,-0.00324785,0.,0.,-0.00904584,0.,0.,0.00372181,0.,0.,0.01328640
 ,-0.00734695,-0.00060011,0.,0.00331065,-0.00285418,0.,0.00001252,0.015
 88427,0.,-0.17568352,-0.09542252,0.,-0.04285926,-0.06075915,0.,0.02394
 120,0.03550754,0.,0.00145656,0.00038762,0.,0.00135838,0.00270121,0.,-0
 .00007581,-0.00014125,0.,-0.00115551,-0.00175149,0.,0.00025272,0.00010
 173,0.,0.00221471,-0.00311636,0.,0.00227164,0.00007833,0.,0.00045888,-
 0.00030927,0.,-0.00014277,0.00026157,0.,-0.00016268,0.00005573,0.,-0.0
 0006353,0.00002000,0.,-0.00257313,0.00639559,0.,-0.00070686,0.00054344
 ,0.,-0.00063513,0.00068111,0.,-0.00001806,-0.00012036,0.,0.86512471,0.
 00896981,0.00923472,0.,-0.00605172,0.00407420,0.,0.01185267,-0.0076913
 0,0.,-0.09182546,-0.35566490,0.,-0.02509212,0.00081025,0.,0.00570115,-
 0.08147261,0.,0.00170511,-0.00615291,0.,0.00133004,0.00169795,0.,-0.00
 074396,0.00045007,0.,-0.00629519,-0.00359487,0.,-0.00007942,-0.0001692
 8,0.,0.00277515,-0.00467888,0.,-0.01813916,-0.00760024,0.,-0.00390066,
 -0.00321265,0.,0.00082271,0.00119932,0.,-0.00229004,-0.00124366,0.,0.0
 0032095,-0.00002781,0.,0.02118165,-0.00585114,0.,0.00674738,-0.0013439
 5,0.,0.00487442,0.00674519,0.,-0.00040510,0.00051270,0.,-0.03146726,0.
 82077703,0.,0.,0.00532673,0.,0.,-0.00074505,0.,0.,0.00269886,0.,0.,-0.
 04228714,0.,0.,0.00960627,0.,0.,0.00957558,0.,0.,-0.00017634,0.,0.,0.0
 0089655,0.,0.,-0.00004873,0.,0.,-0.00018736,0.,0.,-0.00024686,0.,0.,-0
 .00224626,0.,0.,-0.00060448,0.,0.,-0.00018937,0.,0.,-0.00001285,0.,0.,
 -0.00011554,0.,0.,0.00000267,0.,0.,0.00377091,0.,0.,-0.00021444,0.,0.,
 0.00108747,0.,0.,-0.00012405,0.,0.,0.01793238,-0.00046954,-0.00077114,
 0.,0.00043621,-0.00035179,0.,-0.00050967,0.00125065,0.,-0.01180990,-0.
 00382033,0.,0.00192460,-0.00207346,0.,-0.00028475,0.00435699,0.,-0.000
 18205,0.00046166,0.,-0.00023902,-0.00011142,0.,0.00010433,0.00000691,0
 .,0.00056935,0.00036345,0.,0.00000344,0.00001181,0.,0.00007118,0.00040
 024,0.,0.00022679,0.00023917,0.,-0.00006304,0.00008313,0.,0.00000971,-
 0.00006748,0.,0.00004651,0.00003818,0.,-0.00000193,-0.00000390,0.,-0.0
 0029588,0.00041298,0.,-0.00008707,-0.00005865,0.,0.00005390,-0.0001798
 0,0.,0.00001483,0.00000507,0.,-0.46786276,-0.03230922,0.,0.48497980,0.
 00016667,-0.00155443,0.,0.00051624,0.00010122,0.,-0.00099717,0.0023368
 0,0.,-0.03959623,0.00310181,0.,-0.00169413,-0.00728798,0.,0.00156557,0
 .00342970,0.,0.00043626,0.00018606,0.,0.00012764,0.00035199,0.,-0.0000
 1909,-0.00011113,0.,-0.00020234,-0.00027508,0.,0.00003412,0.00003086,0
 .,0.00015319,-0.00058160,0.,-0.00158333,0.00002892,0.,-0.00030665,-0.0
 0015005,0.,0.00007553,-0.00000823,0.,-0.00000448,-0.00006131,0.,0.0000
 3378,-0.00000449,0.,0.00148920,-0.00242696,0.,0.00048350,-0.00021520,0
 .,0.00041284,0.00038405,0.,0.00000947,0.00006174,0.,-0.02415958,-0.075
 41785,0.,0.04026289,0.06460236,0.,0.,-0.00171316,0.,0.,0.00028927,0.,0
 .,0.00277831,0.,0.,-0.00251744,0.,0.,0.00353945,0.,0.,-0.00220881,0.,0
 .,-0.00014820,0.,0.,-0.00020267,0.,0.,0.00004407,0.,0.,0.00003867,0.,0
 .,0.00011870,0.,0.,-0.00103210,0.,0.,0.00004878,0.,0.,0.00004365,0.,0.
 ,-0.00001089,0.,0.,0.00000943,0.,0.,0.00000741,0.,0.,-0.00025643,0.,0.
 ,-0.00003393,0.,0.,-0.00006820,0.,0.,0.00005839,0.,0.,-0.00070092,0.,0
 .,0.00631383,0.00259793,0.00153972,0.,-0.00123572,0.00097102,0.,0.0029
 2103,-0.00040771,0.,0.02195091,-0.00402599,0.,-0.00314918,-0.00060144,
 0.,-0.00087052,-0.00919187,0.,0.00003882,-0.00098180,0.,-0.00004544,-0
 .00024192,0.,-0.00011938,0.00012724,0.,-0.00070999,-0.00045337,0.,-0.0
 0004687,-0.00005305,0.,0.00002510,-0.00423204,0.,-0.01797188,-0.000896
 34,0.,-0.00341623,-0.00218815,0.,0.00083525,0.00042725,0.,-0.00111622,
 -0.00074144,0.,0.00027078,-0.00004506,0.,0.00846090,-0.00539124,0.,0.0
 0497591,-0.00181901,0.,0.00461649,0.00447487,0.,-0.00020438,0.00050716
 ,0.,-0.19830711,0.15589491,0.,-0.00673890,0.02288327,0.,0.18808337,-0.
 00080989,-0.00301851,0.,0.00119830,-0.00020346,0.,-0.00434434,-0.00186
 285,0.,0.00981388,-0.02575198,0.,0.00628266,0.00283551,0.,-0.00242891,
 0.00398955,0.,-0.00013806,0.00084491,0.,-0.00048832,0.00017953,0.,0.00
 012873,-0.00013044,0.,0.00065151,0.00044689,0.,-0.00001893,0.00004396,
 0.,-0.00398879,0.00251102,0.,0.01985830,0.00836789,0.,0.00336544,0.001
 97841,0.,-0.00088330,-0.00072216,0.,0.00192969,0.00121926,0.,-0.000384
 77,0.00004298,0.,-0.01530959,-0.00440334,0.,-0.00748054,0.00198993,0.,
 -0.00521391,-0.00596019,0.,0.00028952,-0.00063014,0.,0.16186249,-0.296
 10989,0.,-0.00785455,0.01412167,0.,-0.15745799,0.30196493,0.,0.,0.0033
 8349,0.,0.,-0.00021206,0.,0.,-0.00098756,0.,0.,-0.00689965,0.,0.,-0.00
 181440,0.,0.,0.00156924,0.,0.,-0.00002816,0.,0.,0.00012170,0.,0.,0.000
 12387,0.,0.,-0.00010296,0.,0.,-0.00014220,0.,0.,0.00227288,0.,0.,0.000
 58482,0.,0.,0.00002362,0.,0.,0.00004267,0.,0.,0.00031286,0.,0.,-0.0000
 1663,0.,0.,-0.00618853,0.,0.,0.00072664,0.,0.,-0.00139406,0.,0.,0.0000
 1682,0.,0.,-0.00310517,0.,0.,-0.00398255,0.,0.,0.01573610,0.01782247,0
 .00870638,0.,-0.06418304,0.02023766,0.,-0.60703806,0.02694199,0.,0.002
 09177,0.00632239,0.,-0.06174093,-0.04445145,0.,-0.00616083,-0.01393877
 ,0.,0.00422981,-0.00504372,0.,0.00054377,0.00327476,0.,0.00050568,0.00
 044594,0.,-0.00554537,0.00422197,0.,-0.00018209,0.00012273,0.,-0.00578
 716,0.00732587,0.,-0.00817003,-0.00323935,0.,-0.01558111,-0.01395400,0
 .,0.00206318,0.00551817,0.,-0.00409762,-0.00162892,0.,0.00018084,0.000
 23018,0.,0.00666604,-0.00057949,0.,0.00436277,0.00018035,0.,0.01215463
 ,0.00167408,0.,-0.00021571,-0.00032401,0.,-0.00330364,-0.00683468,0.,0
 .00018556,-0.00023845,0.,-0.00287923,0.00381417,0.,0.72730913,-0.00753
 473,-0.01407765,0.,0.04178530,0.01011667,0.,0.01953681,-0.10474806,0.,
 0.01371202,-0.01410715,0.,-0.06464978,0.00744893,0.,-0.00296298,0.0122
 8585,0.,-0.00298914,0.00581331,0.,0.00343266,-0.00194698,0.,0.00007504
 ,-0.00081889,0.,0.00353609,0.00101963,0.,0.00008658,-0.00008470,0.,0.0
 0403031,0.00331950,0.,0.00346869,0.00244479,0.,0.00523921,0.00591104,0
 .,-0.00078022,-0.00259863,0.,0.00171365,0.00064612,0.,-0.00005870,-0.0
 0014097,0.,-0.00242172,-0.00045713,0.,-0.00156169,-0.00084297,0.,-0.00
 457141,-0.00245676,0.,0.00014589,0.00013426,0.,-0.00352182,0.00381487,
 0.,-0.00031468,-0.00070373,0.,0.00099177,-0.00060257,0.,-0.00829806,0.
 10955742,0.,0.,0.00662787,0.,0.,0.01601241,0.,0.,-0.06920045,0.,0.,0.0
 0680683,0.,0.,0.01514086,0.,0.,-0.00186809,0.,0.,-0.00024640,0.,0.,-0.
 00156387,0.,0.,-0.00052614,0.,0.,-0.00029888,0.,0.,-0.00003841,0.,0.,-
 0.00419711,0.,0.,-0.00010920,0.,0.,-0.00062244,0.,0.,-0.00034117,0.,0.
 ,-0.00006290,0.,0.,0.00004577,0.,0.,0.00011310,0.,0.,-0.00004256,0.,0.
 ,0.00124848,0.,0.,-0.00000953,0.,0.,0.00011728,0.,0.,-0.00042084,0.,0.
 ,-0.00005547,0.,0.,0.03668724,0.00037563,-0.00007860,0.,-0.00124458,-0
 .00008421,0.,0.00520372,0.00224820,0.,0.00069912,-0.00073299,0.,-0.000
 97762,-0.00010943,0.,-0.00057351,0.00047228,0.,0.00012016,-0.00000987,
 0.,-0.00024725,0.00033354,0.,0.00004690,0.00000241,0.,-0.00020197,0.00
 019495,0.,-0.00003701,0.00003073,0.,0.00060226,-0.00199082,0.,-0.00024
 064,0.01904869,0.,-0.17709424,-0.10432305,0.,0.01998626,0.02060828,0.,
 -0.01156874,0.00346981,0.,0.00121667,0.00141159,0.,-0.00446887,-0.0049
 9714,0.,0.00674773,-0.00785549,0.,-0.05360684,-0.06725745,0.,0.0004625
 6,-0.00036542,0.,-0.00042216,0.00059572,0.,0.00003785,0.00007779,0.,0.
 00090514,-0.00084582,0.,-0.00762800,0.01132626,0.,0.86266395,-0.003253
 58,-0.00329666,0.,0.00581745,-0.00058419,0.,-0.02090380,-0.00971122,0.
 ,-0.00088445,-0.00467645,0.,0.00267925,0.00771119,0.,0.00050095,0.0045
 9190,0.,-0.00007280,0.00114658,0.,0.00065378,-0.00033590,0.,-0.0000814
 2,-0.00012853,0.,0.00069812,-0.00036071,0.,0.00006671,-0.00002920,0.,0
 .00380626,-0.00617722,0.,0.01632812,0.01162568,0.,-0.08658275,-0.39170
 425,0.,-0.01222845,-0.06044674,0.,0.01403202,0.00666321,0.,-0.00057442
 ,-0.00110893,0.,-0.00789050,-0.00079362,0.,-0.01039777,-0.00520366,0.,
 -0.04655928,-0.00728160,0.,0.00059082,0.00139275,0.,0.00049002,0.00441
 769,0.,-0.00010174,0.00013967,0.,0.00264444,-0.00308592,0.,0.03185998,
 -0.01193255,0.,0.02037034,0.80138804,0.,0.,-0.00021567,0.,0.,-0.000384
 26,0.,0.,-0.00040602,0.,0.,-0.00022152,0.,0.,0.00115264,0.,0.,0.000079
 01,0.,0.,0.00009774,0.,0.,0.00009968,0.,0.,-0.00002406,0.,0.,0.0000009
 6,0.,0.,-0.00000899,0.,0.,-0.00097906,0.,0.,0.00623381,0.,0.,-0.047629
 49,0.,0.,0.01198291,0.,0.,0.00264453,0.,0.,-0.00082343,0.,0.,-0.000393
 23,0.,0.,-0.00028320,0.,0.,0.00857625,0.,0.,-0.00056433,0.,0.,0.000236
 08,0.,0.,-0.00005426,0.,0.,-0.00016049,0.,0.,0.00533094,0.,0.,0.037673
 72,-0.00283876,-0.00182091,0.,0.00521449,-0.00107324,0.,-0.02420705,-0
 .00232761,0.,-0.00237996,-0.00300578,0.,0.00388749,0.00594224,0.,0.001
 31404,0.00258910,0.,-0.00021971,0.00085675,0.,0.00060213,-0.00078396,0
 .,-0.00011701,-0.00007354,0.,0.00089493,-0.00055325,0.,0.00009616,-0.0
 0006152,0.,-0.00012007,-0.00397071,0.,0.00424884,0.00256706,0.,0.02949
 020,-0.00512703,0.,-0.00336545,-0.00778122,0.,0.00445207,0.00087750,0.
 ,-0.00028288,-0.00045188,0.,-0.00381594,0.00004126,0.,-0.00321635,-0.0
 0015855,0.,-0.00699878,-0.00139476,0.,0.00009206,0.00045015,0.,0.00096
 588,0.00285975,0.,-0.00012081,0.00007120,0.,0.00119747,-0.00170533,0.,
 0.01518591,-0.01045762,0.,-0.17816393,0.12636629,0.,0.16552370,0.00394
 066,0.00321955,0.,-0.00753192,0.00114676,0.,0.02435487,0.00982842,0.,0
 .00126021,0.00394162,0.,-0.00500413,-0.00670759,0.,-0.00118522,-0.0042
 7319,0.,0.00024386,-0.00125542,0.,-0.00074210,0.00078511,0.,0.00013777
 ,0.00011885,0.,-0.00111690,0.00069280,0.,-0.00010663,0.00005807,0.,-0.
 00350803,0.00471467,0.,-0.00623820,-0.00420327,0.,0.00224477,-0.032210
 80,0.,-0.00154941,0.00430514,0.,-0.00266803,-0.00209719,0.,-0.00006552
 ,0.00002959,0.,0.00503364,0.00049489,0.,0.00346920,0.00150235,0.,0.011
 66654,0.00492041,0.,-0.00024223,-0.00030839,0.,-0.00084827,-0.00363696
 ,0.,0.00013461,-0.00007770,0.,-0.00173564,0.00206048,0.,-0.02416011,-0
 .00351437,0.,0.13596069,-0.25666702,0.,-0.12260177,0.26076780,0.,0.,0.
 00053442,0.,0.,0.00103490,0.,0.,0.00010871,0.,0.,0.00004427,0.,0.,-0.0
 0140410,0.,0.,-0.00006915,0.,0.,-0.00011790,0.,0.,-0.00019653,0.,0.,-0
 .00000995,0.,0.,-0.00000242,0.,0.,0.00000074,0.,0.,0.00124657,0.,0.,-0
 .00144781,0.,0.,-0.00058205,0.,0.,0.00559758,0.,0.,0.00173006,0.,0.,-0
 .00073243,0.,0.,0.00030927,0.,0.,0.00015043,0.,0.,-0.00387390,0.,0.,-0
 .00004741,0.,0.,-0.00017704,0.,0.,0.00003301,0.,0.,0.00013995,0.,0.,-0
 .00825202,0.,0.,-0.01807848,0.,0.,0.02761936,0.00008221,0.00016366,0.,
 -0.00019400,-0.00002300,0.,0.00083781,0.00045244,0.,-0.00001886,0.0002
 5409,0.,-0.00004685,-0.00034104,0.,0.00002333,-0.00022005,0.,0.0000084
 6,-0.00004671,0.,-0.00001230,-0.00001648,0.,-0.00000374,0.00001002,0.,
 -0.00001705,-0.00000086,0.,0.00000004,-0.00000125,0.,-0.00008645,0.000
 20801,0.,-0.00085805,-0.00072914,0.,-0.01102716,0.00137473,0.,0.001409
 69,0.00297210,0.,-0.00120395,-0.00057626,0.,0.00001236,0.00004519,0.,0
 .00056630,0.00002284,0.,0.00097321,0.00030337,0.,0.00231309,-0.0014769
 5,0.,-0.00004674,-0.00020975,0.,-0.00000324,-0.00023963,0.,-0.00000422
 ,-0.00001005,0.,-0.00016946,0.00019569,0.,-0.00102641,0.00106067,0.,-0
 .46392303,-0.03699534,0.,-0.00733863,-0.00948102,0.,0.47951606,-0.0001
 6149,-0.00005893,0.,0.00047418,-0.00001853,0.,-0.00182114,-0.00028789,
 0.,-0.00024805,-0.00009127,0.,0.00021297,0.00050102,0.,0.00012377,0.00
 004924,0.,-0.00006996,0.00004403,0.,0.00003096,-0.00009566,0.,-0.00000
 582,-0.00000762,0.,0.00011140,-0.00005441,0.,0.00001102,-0.00000549,0.
 ,-0.00005359,-0.00028529,0.,-0.00148922,0.00198598,0.,-0.03475154,0.00
 328548,0.,-0.00098129,0.00093791,0.,-0.00069290,-0.00028967,0.,0.00007
 476,0.00007424,0.,-0.00010451,-0.00071181,0.,0.00124917,-0.00043248,0.
 ,-0.00228432,-0.00615676,0.,0.00009124,-0.00008548,0.,0.00006957,0.000
 08438,0.,-0.00000600,0.00000801,0.,0.00004097,-0.00004595,0.,0.0021566
 1,-0.00358190,0.,-0.02712026,-0.07726620,0.,0.02068443,0.01661000,0.,0
 .04340416,0.06694533,0.,0.,0.00001800,0.,0.,0.00000889,0.,0.,0.0000502
 9,0.,0.,0.00005386,0.,0.,-0.00008003,0.,0.,-0.00002692,0.,0.,-0.000047
 07,0.,0.,-0.00001444,0.,0.,0.00001651,0.,0.,0.00000112,0.,0.,0.0000060
 4,0.,0.,-0.00006377,0.,0.,0.00453233,0.,0.,-0.00650029,0.,0.,-0.003014
 54,0.,0.,-0.00095863,0.,0.,0.00020747,0.,0.,-0.00102113,0.,0.,-0.00012
 370,0.,0.,0.00394715,0.,0.,-0.00005288,0.,0.,-0.00006472,0.,0.,0.00001
 967,0.,0.,0.00005057,0.,0.,-0.00025489,0.,0.,-0.00254973,0.,0.,-0.0030
 1788,0.,0.,0.00796385,-0.00001631,-0.00010108,0.,0.00004347,0.00002699
 ,0.,-0.00030069,-0.00020997,0.,0.00019722,-0.00003740,0.,-0.00016627,0
 .00038972,0.,-0.00008649,0.00012861,0.,-0.00000473,0.00002492,0.,-0.00
 001135,0.00003337,0.,0.00000582,-0.00000447,0.,-0.00000277,0.00001523,
 0.,-0.00000247,0.00000295,0.,0.00030961,-0.00055240,0.,0.00084576,0.00
 150968,0.,-0.01211609,-0.00716370,0.,-0.34961200,-0.01952458,0.,-0.009
 77652,0.00211276,0.,0.00058302,-0.00019118,0.,-0.00009573,-0.00034791,
 0.,0.00246985,-0.00237507,0.,-0.00092746,0.00313938,0.,-0.00025992,0.0
 0035946,0.,-0.00004574,0.00004220,0.,0.00000549,0.00001234,0.,0.000101
 41,-0.00003734,0.,0.00023766,-0.00001839,0.,0.00133045,-0.00037824,0.,
 0.00001997,0.00033831,0.,0.00023758,0.00105488,0.,0.36703723,0.0000281
 4,0.00008463,0.,-0.00006945,-0.00001515,0.,0.00038354,0.00020799,0.,-0
 .00022413,-0.00003211,0.,0.00019192,-0.00050798,0.,0.00007233,-0.00009
 502,0.,0.00000352,-0.00002236,0.,0.00000307,-0.00002261,0.,-0.00000344
 ,0.00000273,0.,0.00000260,-0.00000829,0.,0.00000181,-0.00000177,0.,-0.
 00033061,0.00074856,0.,-0.00017524,-0.00320839,0.,0.02458322,0.0080053
 8,0.,-0.01714850,-0.05895562,0.,-0.02969537,0.00373434,0.,0.00027438,0
 .00088617,0.,-0.00014441,0.00094844,0.,-0.00190324,-0.00501570,0.,0.00
 458869,-0.00445164,0.,-0.00139951,0.00038210,0.,0.00003140,0.00005053,
 0.,-0.00000359,-0.00000911,0.,-0.00003857,-0.00006953,0.,-0.00034223,0
 .00010264,0.,-0.00038073,0.00171386,0.,0.00004293,-0.00024461,0.,-0.00
 009946,-0.00105026,0.,0.02175094,0.05684279,0.,0.,0.00000139,0.,0.,0.0
 0000141,0.,0.,0.00001740,0.,0.,0.00001831,0.,0.,-0.00005784,0.,0.,-0.0
 0000929,0.,0.,-0.00000584,0.,0.,-0.00000334,0.,0.,0.00000405,0.,0.,0.0
 0000061,0.,0.,0.00000114,0.,0.,0.00008606,0.,0.,-0.00041725,0.,0.,-0.0
 0155707,0.,0.,-0.02352311,0.,0.,-0.00223659,0.,0.,-0.00507023,0.,0.,-0
 .00049465,0.,0.,0.00838396,0.,0.,0.00373140,0.,0.,0.00194833,0.,0.,-0.
 00000445,0.,0.,0.00000775,0.,0.,-0.00001533,0.,0.,-0.00002042,0.,0.,-0
 .00133206,0.,0.,-0.00054021,0.,0.,0.00091485,0.,0.,0.02017100\\-0.0000
 7176,0.00002364,0.,0.00006394,0.00003208,0.,-0.00004599,0.00006959,0.,
 0.00000362,-0.00011260,0.,-0.00004122,-0.00004154,0.,0.00000555,0.0000
 4257,0.,-0.00005030,-0.00004095,0.,0.00004881,-0.00006314,0.,-0.000006
 40,0.00000211,0.,0.00000539,-0.00000321,0.,0.00000934,-0.00000451,0.,0
 .00001806,-0.00000417,0.,0.00003187,-0.00003949,0.,0.00003386,-0.00001
 666,0.,-0.00002228,0.00002962,0.,-0.00000527,-0.00001935,0.,0.00000493
 ,0.00000703,0.,0.00000290,0.00000417,0.,-0.00002727,0.00003359,0.,-0.0
 0004070,0.00001933,0.,0.00000601,-0.00000339,0.,0.00000033,0.00011434,
 0.,0.00000185,0.00000032,0.,0.00001958,-0.00001198,0.,0.00002788,0.000
 00471,0.,-0.00001262,0.00003333,0.,0.00003127,-0.00004034,0.,0.0000015
 6,-0.00000444,0.,0.00000707,-0.00001066,0.\\\@


 IF YOU WANT TO LEARN FROM THE THEORETICAL PHYSICISTS ABOUT THE
 METHODS WHICH THEY USE, I ADVISE YOU TO FOLLOW THIS PRINCIPLE VERY STRICTLY:
 DON'T LISTEN TO THEIR WORDS; PAY ATTENTION, INSTEAD, TO THEIR ACTIONS.
 -- A.EINSTEIN, 1934
 Job cpu time:       0 days  0 hours 34 minutes 27.3 seconds.
 Elapsed time:       0 days  0 hours  2 minutes 10.5 seconds.
 File lengths (MBytes):  RWF=    376 Int=      0 D2E=      0 Chk=     16 Scr=      1
 Normal termination of Gaussian 16 at Sat Aug 10 16:36:16 2019.
