 Entering Gaussian System, Link 0=/software/sse/easybuild/prefix/software/Gaussian/16.B.01-avx2-nsc1-bdist/g16/g16.orig
 Input=freq-hp.wrap
 Output=freq-hp.log
 Initial command:
 /software/sse/easybuild/prefix/software/Gaussian/16.B.01-avx2-nsc1-bdist/g16/l1.exe "/scratch/local/Gau-78457.inp" -scrdir="/scratch/local/"
 Default is to use a total of  16 processors:
                               16 via shared-memory
                                1 via Linda
 Entering Link 1 = /software/sse/easybuild/prefix/software/Gaussian/16.B.01-avx2-nsc1-bdist/g16/l1.exe PID=     78467.
  
 Copyright (c) 1988-2017, Gaussian, Inc.  All Rights Reserved.
  
 This is part of the Gaussian(R) 16 program.  It is based on
 the Gaussian(R) 09 system (copyright 2009, Gaussian, Inc.),
 the Gaussian(R) 03 system (copyright 2003, Gaussian, Inc.),
 the Gaussian(R) 98 system (copyright 1998, Gaussian, Inc.),
 the Gaussian(R) 94 system (copyright 1995, Gaussian, Inc.),
 the Gaussian 92(TM) system (copyright 1992, Gaussian, Inc.),
 the Gaussian 90(TM) system (copyright 1990, Gaussian, Inc.),
 the Gaussian 88(TM) system (copyright 1988, Gaussian, Inc.),
 the Gaussian 86(TM) system (copyright 1986, Carnegie Mellon
 University), and the Gaussian 82(TM) system (copyright 1983,
 Carnegie Mellon University). Gaussian is a federally registered
 trademark of Gaussian, Inc.
  
 This software contains proprietary and confidential information,
 including trade secrets, belonging to Gaussian, Inc.
  
 This software is provided under written license and may be
 used, copied, transmitted, or stored only in accord with that
 written license.
  
 The following legend is applicable only to US Government
 contracts under FAR:
  
                    RESTRICTED RIGHTS LEGEND
  
 Use, reproduction and disclosure by the US Government is
 subject to restrictions as set forth in subparagraphs (a)
 and (c) of the Commercial Computer Software - Restricted
 Rights clause in FAR 52.227-19.
  
 Gaussian, Inc.
 340 Quinnipiac St., Bldg. 40, Wallingford CT 06492
  
  
 ---------------------------------------------------------------
 Warning -- This program may not be used in any manner that
 competes with the business of Gaussian, Inc. or will provide
 assistance to any competitor of Gaussian, Inc.  The licensee
 of this program is prohibited from giving any competitor of
 Gaussian, Inc. access to this program.  By using this program,
 the user acknowledges that Gaussian, Inc. is engaged in the
 business of creating and licensing software in the field of
 computational chemistry and represents and warrants to the
 licensee that it is not a competitor of Gaussian, Inc. and that
 it will not use this program in any manner prohibited above.
 ---------------------------------------------------------------
  

 Cite this work as:
 Gaussian 16, Revision B.01,
 M. J. Frisch, G. W. Trucks, H. B. Schlegel, G. E. Scuseria, 
 M. A. Robb, J. R. Cheeseman, G. Scalmani, V. Barone, 
 G. A. Petersson, H. Nakatsuji, X. Li, M. Caricato, A. V. Marenich, 
 J. Bloino, B. G. Janesko, R. Gomperts, B. Mennucci, H. P. Hratchian, 
 J. V. Ortiz, A. F. Izmaylov, J. L. Sonnenberg, D. Williams-Young, 
 F. Ding, F. Lipparini, F. Egidi, J. Goings, B. Peng, A. Petrone, 
 T. Henderson, D. Ranasinghe, V. G. Zakrzewski, J. Gao, N. Rega, 
 G. Zheng, W. Liang, M. Hada, M. Ehara, K. Toyota, R. Fukuda, 
 J. Hasegawa, M. Ishida, T. Nakajima, Y. Honda, O. Kitao, H. Nakai, 
 T. Vreven, K. Throssell, J. A. Montgomery, Jr., J. E. Peralta, 
 F. Ogliaro, M. J. Bearpark, J. J. Heyd, E. N. Brothers, K. N. Kudin, 
 V. N. Staroverov, T. A. Keith, R. Kobayashi, J. Normand, 
 K. Raghavachari, A. P. Rendell, J. C. Burant, S. S. Iyengar, 
 J. Tomasi, M. Cossi, J. M. Millam, M. Klene, C. Adamo, R. Cammi, 
 J. W. Ochterski, R. L. Martin, K. Morokuma, O. Farkas, 
 J. B. Foresman, and D. J. Fox, Gaussian, Inc., Wallingford CT, 2016.
 
 ******************************************
 Gaussian 16:  ES64L-G16RevB.01 20-Dec-2017
                10-Aug-2019 
 ******************************************
 %chk=freq.chk
 ----------------------------------------------------------------------
 # freq(hpmodes,intmodes) iop(1/33=3) b3lyp/6-31g(d,p) geom=connectivit
 y iop(7/75=-1)
 ----------------------------------------------------------------------
 1/10=4,18=20,30=1,33=3,38=1,57=2/1,3;
 2/9=110,12=2,17=6,18=5,40=1/2;
 3/5=1,6=6,7=101,11=2,25=1,30=1,71=2,74=-5,140=1/1,2,3;
 4//1;
 5/5=2,38=5,98=1/2;
 8/6=4,10=90,11=11/1;
 11/6=1,8=1,9=11,15=111,16=1/1,2,10;
 10/6=1/2;
 6/7=2,8=2,9=2,10=2,28=1/1;
 7/8=31,10=1,25=1,75=-1/1,2,3,16;
 1/10=4,18=20,30=1,33=3/3;
 99//99;
 ONIOM results not found on unit 2.
 ----
 name
 ----
 TstMul:  ICh=     0
 TstMul:  Mul=     1
 TstMul:  ICh=     0
 TstMul:  Mul=     1
 Symbolic Z-matrix:
 Charge =  0 Multiplicity = 1
 C                     0.04667   0.66029   0. 
 H                     1.09246   0.97812   0. 
 H                    -0.4366    1.08726   0.89183 
 H                    -0.4366    1.08726  -0.89183 
 O                     0.04667  -0.75782   0. 
 H                    -0.87265  -1.05186   0. 
 
 RdStrC is calling ZToCFu for IStruc=1 NZ=     6.
                                ZToCFu                                
 ---------------------------------------------------------------------
 Center     Atomic      Atomic             Coordinates (Angstroms)
 Number     Number       Type             X           Y           Z
 ---------------------------------------------------------------------
      1          6           0        0.046671    0.660292    0.000000
      2          1           0        1.092462    0.978118    0.000000
      3          1           0       -0.436604    1.087258    0.891828
      4          1           0       -0.436604    1.087258   -0.891828
      5          8           0        0.046671   -0.757816    0.000000
      6          1           0       -0.872653   -1.051860    0.000000
 ---------------------------------------------------------------------
 Connectivity in DoCon:
 I=     1 IAn=  6 IBond, RBType=     2  1.00     3  1.00     4  1.00     5  1.00
 I=     2 IAn=  1 IBond, RBType=     1  1.00
 I=     3 IAn=  1 IBond, RBType=     1  1.00
 I=     4 IAn=  1 IBond, RBType=     1  1.00
 I=     5 IAn=  8 IBond, RBType=     1  1.00     6  1.00
 I=     6 IAn=  1 IBond, RBType=     5  1.00
 After GenITR:
 ITRead=  0  0  0  0  0  0
 MicOpt= -1 -1 -1 -1 -1 -1
 List IsCon N=      6 M=      2:
 I=      1 Vals=      2      1 |      3      1 |      4      1 |      5      1 |
 I=      2 Vals=      1      1 |
 I=      3 Vals=      1      1 |
 I=      4 Vals=      1      1 |
 I=      5 Vals=      1      1 |      6      1 |
 I=      6 Vals=      5      1 |
 Coordinate R1 contains atom 1 which is already in QM block.
 Coordinate R1 contains atom 2 which is already in QM block.
 Coordinate R2 contains atom 1 which is already in QM block.
 Coordinate R2 contains atom 3 which is already in QM block.
 Coordinate R3 contains atom 1 which is already in QM block.
 Coordinate R3 contains atom 4 which is already in QM block.
 Coordinate R4 contains atom 1 which is already in QM block.
 Coordinate R4 contains atom 5 which is already in QM block.
 Coordinate R5 contains atom 5 which is already in QM block.
 Coordinate R5 contains atom 6 which is already in QM block.
 Coordinate A1 contains atom 2 which is already in QM block.
 Coordinate A1 contains atom 1 which is already in QM block.
 Coordinate A1 contains atom 1 which is already in QM block.
 Coordinate A2 contains atom 2 which is already in QM block.
 Coordinate A2 contains atom 1 which is already in QM block.
 Coordinate A2 contains atom 1 which is already in QM block.
 Coordinate A3 contains atom 2 which is already in QM block.
 Coordinate A3 contains atom 1 which is already in QM block.
 Coordinate A3 contains atom 1 which is already in QM block.
 Coordinate A4 contains atom 3 which is already in QM block.
 Coordinate A4 contains atom 1 which is already in QM block.
 Coordinate A4 contains atom 1 which is already in QM block.
 Coordinate A5 contains atom 3 which is already in QM block.
 Coordinate A5 contains atom 1 which is already in QM block.
 Coordinate A5 contains atom 1 which is already in QM block.
 Coordinate A6 contains atom 4 which is already in QM block.
 Coordinate A6 contains atom 1 which is already in QM block.
 Coordinate A6 contains atom 1 which is already in QM block.
 Coordinate A7 contains atom 1 which is already in QM block.
 Coordinate A7 contains atom 5 which is already in QM block.
 Coordinate A7 contains atom 5 which is already in QM block.
 Coordinate D1 contains atom 2 which is already in QM block.
 Coordinate D1 contains atom 1 which is already in QM block.
 Coordinate D1 contains atom 5 which is already in QM block.
 Coordinate D1 contains atom 6 which is already in QM block.
 Coordinate D2 contains atom 3 which is already in QM block.
 Coordinate D2 contains atom 1 which is already in QM block.
 Coordinate D2 contains atom 5 which is already in QM block.
 Coordinate D2 contains atom 6 which is already in QM block.
 Coordinate D3 contains atom 4 which is already in QM block.
 Coordinate D3 contains atom 1 which is already in QM block.
 Coordinate D3 contains atom 5 which is already in QM block.
 Coordinate D3 contains atom 6 which is already in QM block.
 Saved connectivity
 I=     1 IAn=  6 IBond, RBType=     2  1.00     3  1.00     4  1.00     5  1.00
 I=     2 IAn=  1 IBond, RBType=     1  1.00
 I=     3 IAn=  1 IBond, RBType=     1  1.00
 I=     4 IAn=  1 IBond, RBType=     1  1.00
 I=     5 IAn=  8 IBond, RBType=     1  1.00     6  1.00
 I=     6 IAn=  1 IBond, RBType=     5  1.00
 ITRead=  0  0  0  0  0  0
 MicOpt= -1 -1 -1 -1 -1 -1
 NAtoms=      6 NQM=        6 NQMF=       0 NMMI=      0 NMMIF=      0
                NMic=       0 NMicF=      0.
 No MM parameters found.
 Leave Link  101 at Sat Aug 10 16:32:25 2019, MaxMem=  4294967296 cpu:               5.5 elap:               0.4

 GradGradGradGradGradGradGradGradGradGradGradGradGradGradGradGradGradGrad
 Berny optimization.
 GetPCM: File not found, return IValue=0.
 Optmz: redundant internal coordinate code flag= 1
 Initialization pass.
                           ----------------------------
                           !    Initial Parameters    !
                           ! (Angstroms and Degrees)  !
 --------------------------                            --------------------------
 ! Name  Definition              Value          Derivative Info.                !
 --------------------------------------------------------------------------------
 ! R1    R(1,2)                  1.093          calculate D2E/DX2 analytically  !
 ! R2    R(1,3)                  1.1006         calculate D2E/DX2 analytically  !
 ! R3    R(1,4)                  1.1006         calculate D2E/DX2 analytically  !
 ! R4    R(1,5)                  1.4181         calculate D2E/DX2 analytically  !
 ! R5    R(5,6)                  0.9652         calculate D2E/DX2 analytically  !
 ! A1    A(2,1,3)              107.8989         calculate D2E/DX2 analytically  !
 ! A2    A(2,1,4)              107.8989         calculate D2E/DX2 analytically  !
 ! A3    A(2,1,5)              106.9045         calculate D2E/DX2 analytically  !
 ! A4    A(3,1,4)              108.2597         calculate D2E/DX2 analytically  !
 ! A5    A(3,1,5)              112.8274         calculate D2E/DX2 analytically  !
 ! A6    A(4,1,5)              112.8274         calculate D2E/DX2 analytically  !
 ! A7    A(1,5,6)              107.7368         calculate D2E/DX2 analytically  !
 ! D1    D(2,1,5,6)            180.0            calculate D2E/DX2 analytically  !
 ! D2    D(3,1,5,6)             61.5471         calculate D2E/DX2 analytically  !
 ! D3    D(4,1,5,6)            -61.5471         calculate D2E/DX2 analytically  !
 --------------------------------------------------------------------------------
 Maximum allowed force set to 1.00D+20.
 Trust Radius=3.00D-01 FncErr=1.00D-07 GrdErr=1.00D-07 EigMax=2.50D+02 EigMin=1.00D-04
 Number of steps in this run=      2 maximum allowed number of steps=      2.
 GradGradGradGradGradGradGradGradGradGradGradGradGradGradGradGradGradGrad

 Leave Link  103 at Sat Aug 10 16:32:25 2019, MaxMem=  4294967296 cpu:               0.1 elap:               0.0
                          Input orientation:                          
 ---------------------------------------------------------------------
 Center     Atomic      Atomic             Coordinates (Angstroms)
 Number     Number       Type             X           Y           Z
 ---------------------------------------------------------------------
      1          6           0        0.046671    0.660292    0.000000
      2          1           0        1.092462    0.978118    0.000000
      3          1           0       -0.436604    1.087258    0.891828
      4          1           0       -0.436604    1.087258   -0.891828
      5          8           0        0.046671   -0.757816    0.000000
      6          1           0       -0.872653   -1.051860    0.000000
 ---------------------------------------------------------------------
                    Distance matrix (angstroms):
                    1          2          3          4          5
     1  C    0.000000
     2  H    1.093020   0.000000
     3  H    1.100551   1.773503   0.000000
     4  H    1.100551   1.773503   1.783656   0.000000
     5  O    1.418108   2.026609   2.105519   2.105519   0.000000
     6  H    1.943353   2.825330   2.358245   2.358245   0.965204
                    6
     6  H    0.000000
 Stoichiometry    CH4O
 Framework group  CS[SG(CH2O),X(H2)]
 Deg. of freedom     8
 Full point group                 CS      NOp   2
 Largest Abelian subgroup         CS      NOp   2
 Largest concise Abelian subgroup CS      NOp   2
                         Standard orientation:                         
 ---------------------------------------------------------------------
 Center     Atomic      Atomic             Coordinates (Angstroms)
 Number     Number       Type             X           Y           Z
 ---------------------------------------------------------------------
      1          6           0        0.046671    0.660292    0.000000
      2          1           0        1.092462    0.978118    0.000000
      3          1           0       -0.436604    1.087258    0.891828
      4          1           0       -0.436604    1.087258   -0.891828
      5          8           0        0.046671   -0.757816    0.000000
      6          1           0       -0.872653   -1.051860    0.000000
 ---------------------------------------------------------------------
 Rotational constants (GHZ):         127.7152854          24.7783628          23.8986808
 Standard basis: 6-31G(d,p) (6D, 7F)
 There are    35 symmetry adapted cartesian basis functions of A'  symmetry.
 There are    15 symmetry adapted cartesian basis functions of A"  symmetry.
 There are    35 symmetry adapted basis functions of A'  symmetry.
 There are    15 symmetry adapted basis functions of A"  symmetry.
    50 basis functions,    84 primitive gaussians,    50 cartesian basis functions
     9 alpha electrons        9 beta electrons
       nuclear repulsion energy        40.2458968460 Hartrees.
 NAtoms=    6 NActive=    6 NUniq=    5 SFac= 1.44D+00 NAtFMM=   60 NAOKFM=F Big=F
 Integral buffers will be    131072 words long.
 Raffenetti 2 integral format.
 Two-electron integral symmetry is turned on.
 One-electron integrals computed using PRISM.
 NBasis=    50 RedAO= T EigKep=  9.45D-03  NBF=    35    15
 NBsUse=    50 1.00D-06 EigRej= -1.00D+00 NBFU=    35    15
 ExpMin= 1.61D-01 ExpMax= 5.48D+03 ExpMxC= 8.25D+02 IAcc=3 IRadAn=         5 AccDes= 0.00D+00
 Harris functional with IExCor=  402 and IRadAn=       5 diagonalized for initial guess.
 HarFok:  IExCor=  402 AccDes= 0.00D+00 IRadAn=         5 IDoV= 1 UseB2=F ITyADJ=14
 ICtDFT=  3500011 ScaDFX=  1.000000  1.000000  1.000000  1.000000
 FoFCou: FMM=F IPFlag=           0 FMFlag=      100000 FMFlg1=           0
         NFxFlg=           0 DoJE=T BraDBF=F KetDBF=T FulRan=T
         wScrn=  0.000000 ICntrl=       500 IOpCl=  0 I1Cent=   200000004 NGrid=           0
         NMat0=    1 NMatS0=      1 NMatT0=    0 NMatD0=    1 NMtDS0=    0 NMtDT0=    0
 Petite list used in FoFCou.
 Initial guess orbital symmetries:
       Occupied  (A') (A') (A') (A') (A') (A") (A') (A') (A")
       Virtual   (A') (A') (A') (A") (A') (A') (A') (A") (A') (A")
                 (A') (A') (A") (A') (A') (A') (A") (A') (A') (A")
                 (A') (A") (A') (A") (A') (A") (A') (A') (A") (A')
                 (A") (A') (A') (A") (A') (A') (A') (A") (A') (A')
                 (A')
 The electronic state of the initial guess is 1-A'.
 Keep R1 ints in memory in symmetry-blocked form, NReq=14780622.
 Requested convergence on RMS density matrix=1.00D-08 within 128 cycles.
 Requested convergence on MAX density matrix=1.00D-06.
 Requested convergence on             energy=1.00D-06.
 No special actions if energy rises.
 Integral accuracy reduced to 1.0D-05 until final iterations.
 Initial convergence to 1.0D-05 achieved.  Increase integral accuracy.
 SCF Done:  E(RB3LYP) =  -115.723964207     A.U. after   11 cycles
            NFock= 11  Conv=0.49D-08     -V/T= 2.0088
 DoSCS=F DFT=T ScalE2(SS,OS)=  1.000000  1.000000
 Range of M.O.s used for correlation:     1    50
 NBasis=    50 NAE=     9 NBE=     9 NFC=     0 NFV=     0
 NROrb=     50 NOA=     9 NOB=     9 NVA=    41 NVB=    41
 Symmetrizing basis deriv contribution to polar:
 IMax=3 JMax=2 DiffMx= 0.00D+00
 G2DrvN: will do     7 centers at a time, making    1 passes.
 Calling FoFCou, ICntrl=  3107 FMM=F I1Cent=   0 AccDes= 0.00D+00.
 End of G2Drv F.D. properties file   721 does not exist.
 End of G2Drv F.D. properties file   722 does not exist.
 End of G2Drv F.D. properties file   788 does not exist.
          IDoAtm=111111
          Differentiating once with respect to electric field.
                with respect to dipole field.
          Differentiating once with respect to nuclear coordinates.
 Keep R1 ints in memory in symmetry-blocked form, NReq=14730016.
          There are    18 degrees of freedom in the 1st order CPHF.  IDoFFX=4 NUNeed=    18.
     18 vectors produced by pass  0 Test12= 2.05D-15 5.56D-09 XBig12= 8.76D+00 1.43D+00.
 AX will form    18 AO Fock derivatives at one time.
     18 vectors produced by pass  1 Test12= 2.05D-15 5.56D-09 XBig12= 4.36D-01 2.06D-01.
     18 vectors produced by pass  2 Test12= 2.05D-15 5.56D-09 XBig12= 4.69D-03 1.69D-02.
     18 vectors produced by pass  3 Test12= 2.05D-15 5.56D-09 XBig12= 3.59D-06 6.90D-04.
     18 vectors produced by pass  4 Test12= 2.05D-15 5.56D-09 XBig12= 3.24D-09 1.41D-05.
      6 vectors produced by pass  5 Test12= 2.05D-15 5.56D-09 XBig12= 1.64D-12 3.03D-07.
      1 vectors produced by pass  6 Test12= 2.05D-15 5.56D-09 XBig12= 5.62D-16 5.92D-09.
 InvSVY:  IOpt=1 It=  1 EMax= 1.33D-15
 Solved reduced A of dimension    97 with    18 vectors.
 Isotropic polarizability for W=    0.000000       16.02 Bohr**3.
 End of Minotr F.D. properties file   721 does not exist.
 End of Minotr F.D. properties file   722 does not exist.
 End of Minotr F.D. properties file   788 does not exist.

 **********************************************************************

            Population analysis using the SCF Density.

 **********************************************************************

 Orbital symmetries:
       Occupied  (A') (A') (A') (A') (A') (A") (A') (A') (A")
       Virtual   (A') (A') (A') (A") (A') (A') (A') (A") (A') (A")
                 (A') (A') (A') (A") (A') (A') (A") (A') (A') (A")
                 (A') (A") (A') (A") (A') (A") (A') (A') (A") (A')
                 (A") (A') (A') (A") (A') (A') (A') (A") (A') (A')
                 (A')
 The electronic state is 1-A'.
 Alpha  occ. eigenvalues --  -19.14032 -10.22504  -1.01058  -0.67799  -0.50123
 Alpha  occ. eigenvalues --   -0.43327  -0.41891  -0.32942  -0.26493
 Alpha virt. eigenvalues --    0.07706   0.13104   0.16702   0.17527   0.20619
 Alpha virt. eigenvalues --    0.53165   0.55958   0.57161   0.76383   0.83187
 Alpha virt. eigenvalues --    0.84336   0.88115   0.94309   0.96510   1.00999
 Alpha virt. eigenvalues --    1.06736   1.36343   1.40243   1.52372   1.59041
 Alpha virt. eigenvalues --    1.81391   1.92413   1.98392   2.03899   2.05894
 Alpha virt. eigenvalues --    2.06656   2.33321   2.37273   2.54626   2.58204
 Alpha virt. eigenvalues --    2.66914   2.69657   2.78808   2.84839   2.97342
 Alpha virt. eigenvalues --    3.15638   3.35570   3.41209   3.51579   3.84018
 Alpha virt. eigenvalues --    4.40851
          Condensed to atoms (all electrons):
               1          2          3          4          5          6
     1  C    4.700904   0.397022   0.374562   0.374562   0.260249  -0.033353
     2  H    0.397022   0.588792  -0.038002  -0.038002  -0.037633   0.007020
     3  H    0.374562  -0.038002   0.668288  -0.052419  -0.036336  -0.005557
     4  H    0.374562  -0.038002  -0.052419   0.668288  -0.036336  -0.005557
     5  O    0.260249  -0.037633  -0.036336  -0.036336   8.095340   0.286558
     6  H   -0.033353   0.007020  -0.005557  -0.005557   0.286558   0.444830
 Mulliken charges:
               1
     1  C   -0.073947
     2  H    0.120804
     3  H    0.089464
     4  H    0.089464
     5  O   -0.531843
     6  H    0.306059
 Sum of Mulliken charges =   0.00000
 Mulliken charges with hydrogens summed into heavy atoms:
               1
     1  C    0.225784
     5  O   -0.225784
 APT charges:
               1
     1  C    0.517745
     2  H   -0.022659
     3  H   -0.083699
     4  H   -0.083699
     5  O   -0.565605
     6  H    0.237917
 Sum of APT charges =  -0.00000
 APT charges with hydrogens summed into heavy atoms:
               1
     1  C    0.327688
     5  O   -0.327688
 Electronic spatial extent (au):  <R**2>=             84.0277
 Charge=             -0.0000 electrons
 Dipole moment (field-independent basis, Debye):
    X=             -1.4120    Y=              0.8795    Z=              0.0000  Tot=              1.6635
 Quadrupole moment (field-independent basis, Debye-Ang):
   XX=            -11.5748   YY=            -12.9881   ZZ=            -13.5512
   XY=              2.0931   XZ=             -0.0000   YZ=             -0.0000
 Traceless Quadrupole moment (field-independent basis, Debye-Ang):
   XX=              1.1299   YY=             -0.2834   ZZ=             -0.8466
   XY=              2.0931   XZ=             -0.0000   YZ=             -0.0000
 Octapole moment (field-independent basis, Debye-Ang**2):
  XXX=             -1.1415  YYY=             -4.0866  ZZZ=              0.0000  XYY=             -2.1403
  XXY=             -2.2828  XXZ=              0.0000  XZZ=             -0.5423  YZZ=             -0.6222
  YYZ=              0.0000  XYZ=             -0.0000
 Hexadecapole moment (field-independent basis, Debye-Ang**3):
 XXXX=            -18.6991 YYYY=            -60.8231 ZZZZ=            -19.1468 XXXY=              0.9938
 XXXZ=             -0.0000 YYYX=              1.1368 YYYZ=             -0.0000 ZZZX=             -0.0000
 ZZZY=             -0.0000 XXYY=            -12.0633 XXZZ=             -6.6859 YYZZ=            -13.6810
 XXYZ=              0.0000 YYXZ=              0.0000 ZZXY=             -0.7604
 N-N= 4.024589684597D+01 E-N=-3.516299456347D+02  KE= 1.147101447991D+02
 Symmetry A'   KE= 1.080818307251D+02
 Symmetry A"   KE= 6.628314074006D+00
  Exact polarizability:  16.432   1.108  17.323   0.000  -0.000  14.294
 Approx polarizability:  21.025   0.804  21.495   0.000  -0.000  17.440
 Calling FoFJK, ICntrl=    100127 FMM=F ISym2X=1 I1Cent= 0 IOpClX= 0 NMat=1 NMatS=1 NMatT=0.
 Full mass-weighted force constant matrix:
 Low frequencies ---  -12.4645   -0.0003    0.0003    0.0008    4.2961    6.8925
 Low frequencies ---  337.0223 1061.5686 1094.7050
 Diagonal vibrational polarizability:
        0.1762704       3.5821229      29.7881361
 Harmonic frequencies (cm**-1), IR intensities (KM/Mole), Raman scattering
 activities (A**4/AMU), depolarization ratios for plane and unpolarized
 incident light, reduced masses (AMU), force constants (mDyne/A),
 and normal coordinates:
                           1         2         3         4         5
                          A"        A'        A'        A"        A'
       Frequencies ---   337.0222 1061.5686 1094.7050 1178.9919 1385.2174
    Reduced masses ---     1.0693    1.9157    1.8711    1.2714    1.2844
   Force constants ---     0.0716    1.2719    1.3211    1.0412    1.4521
    IR Intensities ---   124.5846  118.5938    4.2782    0.5661   27.5499
 Coord Atom Element:
   1     1     6         -0.00000  -0.06994  -0.07095   0.00000  -0.12376
   2     1     6          0.00000  -0.17127   0.20874  -0.00000  -0.02083
   3     1     6          0.00370   0.00000   0.00000   0.13704   0.00000
   1     2     1          0.00000   0.08595   0.10447  -0.00000  -0.00584
   2     2     1         -0.00000  -0.64942  -0.37802   0.00000  -0.42512
   3     2     1          0.29576  -0.00000  -0.00000  -0.26503  -0.00000
   1     3     1         -0.22583   0.22042   0.21609  -0.04974   0.20418
   2     3     1         -0.03846   0.12639   0.40595   0.64377   0.12451
   3     3     1         -0.10421   0.03090   0.04461  -0.19149   0.10917
   1     4     1          0.22583   0.22042   0.21609   0.04974   0.20418
   2     4     1          0.03846   0.12639   0.40595  -0.64377   0.12451
   3     4     1         -0.10421  -0.03090  -0.04461  -0.19149  -0.10917
   1     5     8         -0.00000   0.00327   0.01064  -0.00000   0.07988
   2     5     8         -0.00000   0.18831  -0.14778   0.00000  -0.02288
   3     5     8         -0.06399  -0.00000  -0.00000  -0.06175  -0.00000
   1     6     1          0.00000   0.25409   0.13920  -0.00000  -0.19657
   2     6     1         -0.00000  -0.55280  -0.57384   0.00000   0.78722
   3     6     1          0.88416   0.00000  -0.00000  -0.00365   0.00000
                           6         7         8         9        10
                          A'        A"        A'        A'        A"
       Frequencies ---  1499.6739 1508.6581 1526.5646 2988.3739 3033.9749
    Reduced masses ---     1.1333    1.0486    1.0535    1.0377    1.1051
   Force constants ---     1.5017    1.4062    1.4465    5.4600    5.9936
    IR Intensities ---     6.9560    1.5035    4.2549   63.9584   82.7251
 Coord Atom Element:
   1     1     6         -0.02710   0.00000  -0.03867   0.02887  -0.00000
   2     1     6         -0.10203   0.00000   0.04596  -0.04327   0.00000
   3     1     6         -0.00000  -0.06022  -0.00000  -0.00000  -0.09409
   1     2     1         -0.23334   0.00000  -0.06300   0.24945   0.00000
   2     2     1          0.64155  -0.00000   0.19341   0.07083   0.00000
   3     2     1          0.00000   0.72712   0.00000  -0.00000  -0.02669
   1     3     1          0.31457   0.39665   0.39201  -0.29351  -0.32560
   2     3     1          0.40079   0.26921  -0.38767   0.24725   0.25789
   3     3     1         -0.03966   0.06292   0.40879   0.56368   0.56806
   1     4     1          0.31457  -0.39665   0.39201  -0.29351   0.32560
   2     4     1          0.40079  -0.26921  -0.38767   0.24725  -0.25789
   3     4     1          0.03966   0.06292  -0.40879  -0.56368   0.56806
   1     5     8         -0.00440   0.00000  -0.01789  -0.00023  -0.00000
   2     5     8         -0.01331   0.00000   0.00906  -0.00294  -0.00000
   3     5     8         -0.00000  -0.00803   0.00000  -0.00000   0.00043
   1     6     1         -0.00339  -0.00000   0.02341  -0.00255   0.00000
   2     6     1         -0.01702   0.00000  -0.10920  -0.00340   0.00000
   3     6     1          0.00000  -0.00857  -0.00000   0.00000   0.00412
                          11        12
                          A'        A'
       Frequencies ---  3122.0937 3824.7787
    Reduced masses ---     1.0962    1.0665
   Force constants ---     6.2957    9.1924
    IR Intensities ---    34.2199   13.2212
 Coord Atom Element:
   1     1     6         -0.08877  -0.00262
   2     1     6         -0.01255   0.00128
   3     1     6          0.00000   0.00000
   1     2     1          0.92933   0.01519
   2     2     1          0.26873   0.00138
   3     2     1          0.00000  -0.00000
   1     3     1          0.05859   0.00104
   2     3     1         -0.05950   0.00325
   3     3     1         -0.14460  -0.00093
   1     4     1          0.05859   0.00104
   2     4     1         -0.05950   0.00325
   3     4     1          0.14460   0.00093
   1     5     8          0.00176  -0.05876
   2     5     8         -0.00022  -0.02138
   3     5     8          0.00000   0.00000
   1     6     1         -0.01743   0.94650
   2     6     1          0.00313   0.31615
   3     6     1         -0.00000  -0.00000
 Harmonic frequencies (cm**-1), IR intensities (KM/Mole), Raman scattering
 activities (A**4/AMU), depolarization ratios for plane and unpolarized
 incident light, reduced masses (AMU), force constants (mDyne/A),
 and normal coordinates:
                      1                      2                      3
                     A"                     A'                     A'
 Frequencies --    337.0222              1061.5686              1094.7050
 Red. masses --      1.0693                 1.9157                 1.8711
 Frc consts  --      0.0716                 1.2719                 1.3211
 IR Inten    --    124.5846               118.5938                 4.2782
  Atom  AN      X      Y      Z        X      Y      Z        X      Y      Z
     1   6    -0.00   0.00   0.00    -0.07  -0.17   0.00    -0.07   0.21   0.00
     2   1     0.00  -0.00   0.30     0.09  -0.65  -0.00     0.10  -0.38  -0.00
     3   1    -0.23  -0.04  -0.10     0.22   0.13   0.03     0.22   0.41   0.04
     4   1     0.23   0.04  -0.10     0.22   0.13  -0.03     0.22   0.41  -0.04
     5   8    -0.00  -0.00  -0.06     0.00   0.19  -0.00     0.01  -0.15  -0.00
     6   1     0.00  -0.00   0.88     0.25  -0.55   0.00     0.14  -0.57  -0.00
                      4                      5                      6
                     A"                     A'                     A'
 Frequencies --   1178.9919              1385.2174              1499.6739
 Red. masses --      1.2714                 1.2844                 1.1333
 Frc consts  --      1.0412                 1.4521                 1.5017
 IR Inten    --      0.5661                27.5499                 6.9560
  Atom  AN      X      Y      Z        X      Y      Z        X      Y      Z
     1   6     0.00  -0.00   0.14    -0.12  -0.02   0.00    -0.03  -0.10  -0.00
     2   1    -0.00   0.00  -0.27    -0.01  -0.43  -0.00    -0.23   0.64   0.00
     3   1    -0.05   0.64  -0.19     0.20   0.12   0.11     0.31   0.40  -0.04
     4   1     0.05  -0.64  -0.19     0.20   0.12  -0.11     0.31   0.40   0.04
     5   8    -0.00   0.00  -0.06     0.08  -0.02  -0.00    -0.00  -0.01  -0.00
     6   1    -0.00   0.00  -0.00    -0.20   0.79   0.00    -0.00  -0.02   0.00
                      7                      8                      9
                     A"                     A'                     A'
 Frequencies --   1508.6581              1526.5646              2988.3739
 Red. masses --      1.0486                 1.0535                 1.0377
 Frc consts  --      1.4062                 1.4465                 5.4600
 IR Inten    --      1.5035                 4.2549                63.9584
  Atom  AN      X      Y      Z        X      Y      Z        X      Y      Z
     1   6     0.00   0.00  -0.06    -0.04   0.05  -0.00     0.03  -0.04  -0.00
     2   1     0.00  -0.00   0.73    -0.06   0.19   0.00     0.25   0.07  -0.00
     3   1     0.40   0.27   0.06     0.39  -0.39   0.41    -0.29   0.25   0.56
     4   1    -0.40  -0.27   0.06     0.39  -0.39  -0.41    -0.29   0.25  -0.56
     5   8     0.00   0.00  -0.01    -0.02   0.01   0.00    -0.00  -0.00  -0.00
     6   1    -0.00   0.00  -0.01     0.02  -0.11  -0.00    -0.00  -0.00   0.00
                     10                     11                     12
                     A"                     A'                     A'
 Frequencies --   3033.9749              3122.0937              3824.7787
 Red. masses --      1.1051                 1.0962                 1.0665
 Frc consts  --      5.9936                 6.2957                 9.1924
 IR Inten    --     82.7251                34.2199                13.2212
  Atom  AN      X      Y      Z        X      Y      Z        X      Y      Z
     1   6    -0.00   0.00  -0.09    -0.09  -0.01   0.00    -0.00   0.00   0.00
     2   1     0.00   0.00  -0.03     0.93   0.27   0.00     0.02   0.00  -0.00
     3   1    -0.33   0.26   0.57     0.06  -0.06  -0.14     0.00   0.00  -0.00
     4   1     0.33  -0.26   0.57     0.06  -0.06   0.14     0.00   0.00   0.00
     5   8    -0.00  -0.00   0.00     0.00  -0.00   0.00    -0.06  -0.02   0.00
     6   1     0.00   0.00   0.00    -0.02   0.00  -0.00     0.95   0.32  -0.00

 -------------------
 - Thermochemistry -
 -------------------
 Temperature   298.150 Kelvin.  Pressure   1.00000 Atm.
 Atom     1 has atomic number  6 and mass  12.00000
 Atom     2 has atomic number  1 and mass   1.00783
 Atom     3 has atomic number  1 and mass   1.00783
 Atom     4 has atomic number  1 and mass   1.00783
 Atom     5 has atomic number  8 and mass  15.99491
 Atom     6 has atomic number  1 and mass   1.00783
 Molecular mass:    32.02621 amu.
 Principal axes and moments of inertia in atomic units:
                           1         2         3
     Eigenvalues --    14.13097  72.83537  75.51635
           X            0.05430   0.99852   0.00000
           Y            0.99852  -0.05430   0.00000
           Z            0.00000   0.00000   1.00000
 This molecule is an asymmetric top.
 Rotational symmetry number  1.
 Rotational temperatures (Kelvin)      6.12937     1.18917     1.14696
 Rotational constants (GHZ):         127.71529    24.77836    23.89868
 Zero-point vibrational energy     134948.5 (Joules/Mol)
                                   32.25346 (Kcal/Mol)
 Warning -- explicit consideration of   1 degrees of freedom as
           vibrations may cause significant error
 Vibrational temperatures:    484.90  1527.36  1575.04  1696.31  1993.02
          (Kelvin)           2157.70  2170.62  2196.39  4299.60  4365.21
                             4492.00  5503.00
 
 Zero-point correction=                           0.051399 (Hartree/Particle)
 Thermal correction to Energy=                    0.054702
 Thermal correction to Enthalpy=                  0.055646
 Thermal correction to Gibbs Free Energy=         0.028670
 Sum of electronic and zero-point Energies=           -115.672565
 Sum of electronic and thermal Energies=              -115.669262
 Sum of electronic and thermal Enthalpies=            -115.668318
 Sum of electronic and thermal Free Energies=         -115.695294
 
                     E (Thermal)             CV                S
                      KCal/Mol        Cal/Mol-Kelvin    Cal/Mol-Kelvin
 Total                   34.326              8.709             56.776
 Electronic               0.000              0.000              0.000
 Translational            0.889              2.981             36.324
 Rotational               0.889              2.981             18.992
 Vibrational             32.549              2.747              1.461
 Vibration     1          0.718              1.602              1.226
                       Q            Log10(Q)             Ln(Q)
 Total Bot       0.649658D-13        -13.187315        -30.364915
 Total V=0       0.284863D+11         10.454636         24.072688
 Vib (Bot)       0.288968D-23        -23.539151        -54.200897
 Vib (Bot)    1  0.551991D+00         -0.258068         -0.594224
 Vib (V=0)       0.126707D+01          0.102800          0.236706
 Vib (V=0)    1  0.124478D+01          0.095092          0.218957
 Electronic      0.100000D+01          0.000000          0.000000
 Translational   0.712381D+07          6.852712         15.778953
 Rotational      0.315590D+04          3.499123          8.057029
                           ----------------------------
                           ! Normal Mode     1        !
 --------------------------                            --------------------------
 ! Name  Definition              Value          Relative Weight (%)             !
 --------------------------------------------------------------------------------
 ! R1    R(1,2)                  0.0                     0.0                    !
 ! R2    R(1,3)                 -0.0032                  0.2                    !
 ! R3    R(1,4)                  0.0032                  0.2                    !
 ! R4    R(1,5)                  0.0                     0.0                    !
 ! R5    R(5,6)                  0.0                     0.0                    !
 ! A1    A(2,1,3)               -0.0051                  0.2                    !
 ! A2    A(2,1,4)                0.0051                  0.2                    !
 ! A3    A(2,1,5)                0.0                     0.0                    !
 ! A4    A(3,1,4)                0.0                     0.0                    !
 ! A5    A(3,1,5)                0.0028                  0.1                    !
 ! A6    A(4,1,5)               -0.0028                  0.1                    !
 ! A7    A(1,5,6)                0.0                     0.0                    !
 ! D1    D(2,1,5,6)             -0.694                  33.1                    !
 ! D2    D(3,1,5,6)             -0.6893                 32.9                    !
 ! D3    D(4,1,5,6)             -0.6893                 32.9                    !
 --------------------------------------------------------------------------------
                           ----------------------------
                           ! Normal Mode     2        !
 --------------------------                            --------------------------
 ! Name  Definition              Value          Relative Weight (%)             !
 --------------------------------------------------------------------------------
 ! R1    R(1,2)                  0.0101                  0.5                    !
 ! R2    R(1,3)                  0.013                   0.7                    !
 ! R3    R(1,4)                  0.013                   0.7                    !
 ! R4    R(1,5)                 -0.3596                 19.3                    !
 ! R5    R(5,6)                 -0.0131                  0.7                    !
 ! A1    A(2,1,3)               -0.0585                  3.1                    !
 ! A2    A(2,1,4)               -0.0585                  3.1                    !
 ! A3    A(2,1,5)               -0.2708                 14.5                    !
 ! A4    A(3,1,4)                0.0334                  1.8                    !
 ! A5    A(3,1,5)                0.1657                  8.9                    !
 ! A6    A(4,1,5)                0.1657                  8.9                    !
 ! A7    A(1,5,6)                0.4016                 21.5                    !
 ! D1    D(2,1,5,6)              0.0                     0.0                    !
 ! D2    D(3,1,5,6)              0.151                   8.1                    !
 ! D3    D(4,1,5,6)             -0.151                   8.1                    !
 --------------------------------------------------------------------------------
                           ----------------------------
                           ! Normal Mode     3        !
 --------------------------                            --------------------------
 ! Name  Definition              Value          Relative Weight (%)             !
 --------------------------------------------------------------------------------
 ! R1    R(1,2)                 -0.0028                  0.2                    !
 ! R2    R(1,3)                 -0.0134                  0.8                    !
 ! R3    R(1,4)                 -0.0134                  0.8                    !
 ! R4    R(1,5)                  0.3565                 22.4                    !
 ! R5    R(5,6)                  0.0074                  0.5                    !
 ! A1    A(2,1,3)               -0.0102                  0.6                    !
 ! A2    A(2,1,4)               -0.0102                  0.6                    !
 ! A3    A(2,1,5)               -0.3269                 20.5                    !
 ! A4    A(3,1,4)                0.091                   5.7                    !
 ! A5    A(3,1,5)                0.1201                  7.5                    !
 ! A6    A(4,1,5)                0.1201                  7.5                    !
 ! A7    A(1,5,6)                0.2135                 13.4                    !
 ! D1    D(2,1,5,6)              0.0                     0.0                    !
 ! D2    D(3,1,5,6)              0.154                   9.7                    !
 ! D3    D(4,1,5,6)             -0.154                   9.7                    !
 --------------------------------------------------------------------------------
                           ----------------------------
                           ! Normal Mode     4        !
 --------------------------                            --------------------------
 ! Name  Definition              Value          Relative Weight (%)             !
 --------------------------------------------------------------------------------
 ! R1    R(1,2)                  0.0                     0.0                    !
 ! R2    R(1,3)                  0.0054                  0.4                    !
 ! R3    R(1,4)                 -0.0054                  0.4                    !
 ! R4    R(1,5)                  0.0                     0.0                    !
 ! R5    R(5,6)                  0.0                     0.0                    !
 ! A1    A(2,1,3)                0.0944                  6.2                    !
 ! A2    A(2,1,4)               -0.0944                  6.2                    !
 ! A3    A(2,1,5)                0.0                     0.0                    !
 ! A4    A(3,1,4)                0.0                     0.0                    !
 ! A5    A(3,1,5)                0.4                    26.3                    !
 ! A6    A(4,1,5)               -0.4                    26.3                    !
 ! A7    A(1,5,6)                0.0                     0.0                    !
 ! D1    D(2,1,5,6)              0.1688                 11.1                    !
 ! D2    D(3,1,5,6)             -0.1765                 11.6                    !
 ! D3    D(4,1,5,6)             -0.1765                 11.6                    !
 --------------------------------------------------------------------------------
                           ----------------------------
                           ! Normal Mode     5        !
 --------------------------                            --------------------------
 ! Name  Definition              Value          Relative Weight (%)             !
 --------------------------------------------------------------------------------
 ! R1    R(1,2)                 -0.0047                  0.3                    !
 ! R2    R(1,3)                  0.0008                  0.0                    !
 ! R3    R(1,4)                  0.0008                  0.0                    !
 ! R4    R(1,5)                  0.002                   0.1                    !
 ! R5    R(5,6)                  0.0165                  0.9                    !
 ! A1    A(2,1,3)               -0.0731                  4.0                    !
 ! A2    A(2,1,4)               -0.0731                  4.0                    !
 ! A3    A(2,1,5)               -0.2799                 15.5                    !
 ! A4    A(3,1,4)                0.1781                  9.8                    !
 ! A5    A(3,1,5)                0.1119                  6.2                    !
 ! A6    A(4,1,5)                0.1119                  6.2                    !
 ! A7    A(1,5,6)               -0.5452                 30.1                    !
 ! D1    D(2,1,5,6)              0.0                     0.0                    !
 ! D2    D(3,1,5,6)              0.2057                 11.4                    !
 ! D3    D(4,1,5,6)             -0.2057                 11.4                    !
 --------------------------------------------------------------------------------
                           ----------------------------
                           ! Normal Mode     6        !
 --------------------------                            --------------------------
 ! Name  Definition              Value          Relative Weight (%)             !
 --------------------------------------------------------------------------------
 ! R1    R(1,2)                  0.0189                  0.8                    !
 ! R2    R(1,3)                  0.0129                  0.6                    !
 ! R3    R(1,4)                  0.0129                  0.6                    !
 ! R4    R(1,5)                 -0.0887                  3.9                    !
 ! R5    R(5,6)                  0.0002                  0.0                    !
 ! A1    A(2,1,3)               -0.4369                 19.1                    !
 ! A2    A(2,1,4)               -0.4369                 19.1                    !
 ! A3    A(2,1,5)                0.365                  16.0                    !
 ! A4    A(3,1,4)               -0.0822                  3.6                    !
 ! A5    A(3,1,5)                0.2637                 11.5                    !
 ! A6    A(4,1,5)                0.2637                 11.5                    !
 ! A7    A(1,5,6)               -0.0064                  0.3                    !
 ! D1    D(2,1,5,6)              0.0                     0.0                    !
 ! D2    D(3,1,5,6)              0.15                    6.6                    !
 ! D3    D(4,1,5,6)             -0.15                    6.6                    !
 --------------------------------------------------------------------------------
                           ----------------------------
                           ! Normal Mode     7        !
 --------------------------                            --------------------------
 ! Name  Definition              Value          Relative Weight (%)             !
 --------------------------------------------------------------------------------
 ! R1    R(1,2)                  0.0                     0.0                    !
 ! R2    R(1,3)                  0.03                    1.3                    !
 ! R3    R(1,4)                 -0.03                    1.3                    !
 ! R4    R(1,5)                  0.0                     0.0                    !
 ! R5    R(5,6)                  0.0                     0.0                    !
 ! A1    A(2,1,3)               -0.5606                 24.8                    !
 ! A2    A(2,1,4)                0.5606                 24.8                    !
 ! A3    A(2,1,5)                0.0                     0.0                    !
 ! A4    A(3,1,4)                0.0                     0.0                    !
 ! A5    A(3,1,5)                0.1172                  5.2                    !
 ! A6    A(4,1,5)               -0.1172                  5.2                    !
 ! A7    A(1,5,6)                0.0                     0.0                    !
 ! D1    D(2,1,5,6)             -0.3978                 17.6                    !
 ! D2    D(3,1,5,6)              0.223                   9.9                    !
 ! D3    D(4,1,5,6)              0.223                   9.9                    !
 --------------------------------------------------------------------------------
                           ----------------------------
                           ! Normal Mode     8        !
 --------------------------                            --------------------------
 ! Name  Definition              Value          Relative Weight (%)             !
 --------------------------------------------------------------------------------
 ! R1    R(1,2)                  0.0196                  0.8                    !
 ! R2    R(1,3)                 -0.0261                  1.1                    !
 ! R3    R(1,4)                 -0.0261                  1.1                    !
 ! R4    R(1,5)                  0.0369                  1.6                    !
 ! R5    R(5,6)                 -0.0033                  0.1                    !
 ! A1    A(2,1,3)               -0.1781                  7.6                    !
 ! A2    A(2,1,4)               -0.1781                  7.6                    !
 ! A3    A(2,1,5)                0.064                   2.7                    !
 ! A4    A(3,1,4)                0.7056                 30.2                    !
 ! A5    A(3,1,5)               -0.2172                  9.3                    !
 ! A6    A(4,1,5)               -0.2172                  9.3                    !
 ! A7    A(1,5,6)                0.0609                  2.6                    !
 ! D1    D(2,1,5,6)              0.0                     0.0                    !
 ! D2    D(3,1,5,6)              0.302                  12.9                    !
 ! D3    D(4,1,5,6)             -0.302                  12.9                    !
 --------------------------------------------------------------------------------
                           ----------------------------
                           ! Normal Mode     9        !
 --------------------------                            --------------------------
 ! Name  Definition              Value          Relative Weight (%)             !
 --------------------------------------------------------------------------------
 ! R1    R(1,2)                  0.2442                 13.4                    !
 ! R2    R(1,3)                  0.711                  39.1                    !
 ! R3    R(1,4)                  0.711                  39.1                    !
 ! R4    R(1,5)                 -0.0403                  2.2                    !
 ! R5    R(5,6)                  0.0024                  0.1                    !
 ! A1    A(2,1,3)               -0.0087                  0.5                    !
 ! A2    A(2,1,4)               -0.0087                  0.5                    !
 ! A3    A(2,1,5)                0.0327                  1.8                    !
 ! A4    A(3,1,4)               -0.0205                  1.1                    !
 ! A5    A(3,1,5)                0.0025                  0.1                    !
 ! A6    A(4,1,5)                0.0025                  0.1                    !
 ! A7    A(1,5,6)                0.0107                  0.6                    !
 ! D1    D(2,1,5,6)              0.0                     0.0                    !
 ! D2    D(3,1,5,6)             -0.0118                  0.6                    !
 ! D3    D(4,1,5,6)              0.0118                  0.6                    !
 --------------------------------------------------------------------------------
                           ----------------------------
                           ! Normal Mode    10        !
 --------------------------                            --------------------------
 ! Name  Definition              Value          Relative Weight (%)             !
 --------------------------------------------------------------------------------
 ! R1    R(1,2)                  0.0                     0.0                    !
 ! R2    R(1,3)                  0.7796                 42.7                    !
 ! R3    R(1,4)                 -0.7796                 42.7                    !
 ! R4    R(1,5)                  0.0                     0.0                    !
 ! R5    R(5,6)                  0.0                     0.0                    !
 ! A1    A(2,1,3)               -0.0293                  1.6                    !
 ! A2    A(2,1,4)                0.0293                  1.6                    !
 ! A3    A(2,1,5)                0.0                     0.0                    !
 ! A4    A(3,1,4)                0.0                     0.0                    !
 ! A5    A(3,1,5)               -0.0543                  3.0                    !
 ! A6    A(4,1,5)                0.0543                  3.0                    !
 ! A7    A(1,5,6)                0.0                     0.0                    !
 ! D1    D(2,1,5,6)             -0.0357                  2.0                    !
 ! D2    D(3,1,5,6)              0.0315                  1.7                    !
 ! D3    D(4,1,5,6)              0.0315                  1.7                    !
 --------------------------------------------------------------------------------
                           ----------------------------
                           ! Normal Mode    11        !
 --------------------------                            --------------------------
 ! Name  Definition              Value          Relative Weight (%)             !
 --------------------------------------------------------------------------------
 ! R1    R(1,2)                  1.0559                 58.5                    !
 ! R2    R(1,3)                 -0.2001                 11.1                    !
 ! R3    R(1,4)                 -0.2001                 11.1                    !
 ! R4    R(1,5)                 -0.0123                  0.7                    !
 ! R5    R(5,6)                  0.0173                  1.0                    !
 ! A1    A(2,1,3)               -0.0264                  1.5                    !
 ! A2    A(2,1,4)               -0.0264                  1.5                    !
 ! A3    A(2,1,5)               -0.0468                  2.6                    !
 ! A4    A(3,1,4)                0.0288                  1.6                    !
 ! A5    A(3,1,5)                0.0321                  1.8                    !
 ! A6    A(4,1,5)                0.0321                  1.8                    !
 ! A7    A(1,5,6)               -0.0387                  2.1                    !
 ! D1    D(2,1,5,6)              0.0                     0.0                    !
 ! D2    D(3,1,5,6)              0.0442                  2.4                    !
 ! D3    D(4,1,5,6)             -0.0442                  2.4                    !
 --------------------------------------------------------------------------------
                           ----------------------------
                           ! Normal Mode    12        !
 --------------------------                            --------------------------
 ! Name  Definition              Value          Relative Weight (%)             !
 --------------------------------------------------------------------------------
 ! R1    R(1,2)                  0.0171                  1.5                    !
 ! R2    R(1,3)                 -0.0016                  0.1                    !
 ! R3    R(1,4)                 -0.0016                  0.1                    !
 ! R4    R(1,5)                  0.0227                  1.9                    !
 ! R5    R(5,6)                 -1.0603                 90.9                    !
 ! A1    A(2,1,3)               -0.0005                  0.0                    !
 ! A2    A(2,1,4)               -0.0005                  0.0                    !
 ! A3    A(2,1,5)                0.0185                  1.6                    !
 ! A4    A(3,1,4)                0.0006                  0.1                    !
 ! A5    A(3,1,5)               -0.0086                  0.7                    !
 ! A6    A(4,1,5)               -0.0086                  0.7                    !
 ! A7    A(1,5,6)                0.0126                  1.1                    !
 ! D1    D(2,1,5,6)              0.0                     0.0                    !
 ! D2    D(3,1,5,6)             -0.0063                  0.5                    !
 ! D3    D(4,1,5,6)              0.0063                  0.5                    !
 --------------------------------------------------------------------------------
 Max01P=     12 Av01P=    8.25 Stan. Dev.=    2.67
 Max05P=      8 Av05P=    5.17 Stan. Dev.=    2.52
 Max10P=      5 Av10P=    3.17 Stan. Dev.=    1.11
 MaxNDP=     15 AvNDP=   15.00 Stan. Dev.=    0.00
 ***** Axes restored to original set *****
 -------------------------------------------------------------------
 Center     Atomic                   Forces (Hartrees/Bohr)
 Number     Number              X              Y              Z
 -------------------------------------------------------------------
      1        6          -0.000005484    0.000030210    0.000000000
      2        1           0.000019297   -0.000020421    0.000000000
      3        1          -0.000013869   -0.000016921    0.000001686
      4        1          -0.000013869   -0.000016921   -0.000001686
      5        8          -0.000004925   -0.000003079   -0.000000000
      6        1           0.000018849    0.000027133   -0.000000000
 -------------------------------------------------------------------
 Cartesian Forces:  Max     0.000030210 RMS     0.000014568
 FormGI is forming the generalized inverse of G from B-inverse, IUseBI=4.

 GradGradGradGradGradGradGradGradGradGradGradGradGradGradGradGradGradGrad
 Berny optimization.
 GetPCM: File not found, return IValue=0.
 Optmz: redundant internal coordinate code flag= 1
 IB Matrix in FormBX:
              1            2            3            4            5
     1            1            1            1            1            5
     2            2            3            4            5            6
     3            0            0            0            0            0
     4            0            0            0            0            0
              6            7            8            9           10
     1            2            2            2            3            3
     2            1            1            1            1            1
     3            3            4            5            4            5
     4            0            0            0            0            0
             11           12           13           14           15
     1            4            1            2            3            4
     2            1            5            1            1            1
     3            5            6            5            5            5
     4            0            0            6            6            6
 B Matrix in FormBX:
                 1             2             3             4             5 
      1  -0.956791D+00  0.439121D+00  0.439121D+00  0.000000D+00  0.952466D+00
      2  -0.290778D+00 -0.387957D+00 -0.387957D+00  0.100000D+01  0.304644D+00
      3   0.000000D+00 -0.810347D+00  0.810347D+00  0.000000D+00  0.000000D+00
      4   0.956791D+00 -0.439121D+00 -0.439121D+00  0.000000D+00 -0.952466D+00
      5   0.290778D+00  0.387957D+00  0.387957D+00 -0.100000D+01 -0.304644D+00
      6   0.000000D+00  0.810347D+00 -0.810347D+00  0.000000D+00  0.000000D+00
      7   0.000000D+00  0.000000D+00  0.000000D+00  0.000000D+00  0.000000D+00
      8   0.000000D+00  0.000000D+00  0.000000D+00  0.000000D+00  0.000000D+00
      9   0.000000D+00  0.000000D+00  0.000000D+00  0.000000D+00  0.000000D+00
     10   0.000000D+00  0.000000D+00  0.000000D+00  0.000000D+00  0.000000D+00
     11   0.000000D+00  0.000000D+00  0.000000D+00  0.000000D+00  0.000000D+00
     12   0.000000D+00  0.000000D+00  0.000000D+00  0.000000D+00  0.000000D+00
                 6             7             8             9            10 
      1   0.738033D-01  0.738033D-01 -0.140778D+00  0.292002D+00  0.888750D-01
      2  -0.242846D+00 -0.242846D+00  0.463223D+00 -0.257979D+00  0.443170D+00
      3  -0.412277D+00  0.412277D+00  0.000000D+00  0.281742D+00 -0.164008D+00
      4   0.341456D+00  0.341456D+00  0.513935D+00 -0.584004D+00 -0.266661D+00
      5   0.450019D+00  0.450019D+00 -0.463223D+00  0.515958D+00 -0.443170D+00
      6   0.538119D+00 -0.538119D+00  0.000000D+00  0.000000D+00  0.492092D+00
      7  -0.415259D+00 -0.415259D+00 -0.373157D+00  0.292002D+00  0.177786D+00
      8  -0.207173D+00 -0.207173D+00  0.000000D+00 -0.257979D+00  0.000000D+00
      9  -0.125841D+00  0.125841D+00  0.000000D+00 -0.281742D+00 -0.328083D+00
     10   0.000000D+00  0.000000D+00  0.000000D+00  0.000000D+00  0.000000D+00
     11   0.000000D+00  0.000000D+00  0.000000D+00  0.000000D+00  0.000000D+00
     12   0.000000D+00  0.000000D+00  0.000000D+00  0.000000D+00  0.000000D+00
                11            12            13            14            15 
      1   0.888750D-01  0.373157D+00  0.000000D+00  0.458674D+00 -0.458674D+00
      2   0.443170D+00  0.000000D+00  0.000000D+00  0.000000D+00  0.000000D+00
      3   0.164008D+00  0.000000D+00 -0.506007D+00  0.248552D+00  0.248552D+00
      4  -0.266661D+00 -0.540180D+00  0.000000D+00 -0.596772D+00  0.596772D+00
      5  -0.443170D+00  0.522194D+00  0.000000D+00  0.000000D+00  0.000000D+00
      6  -0.492092D+00  0.000000D+00  0.500059D+00 -0.442740D+00 -0.442740D+00
      7   0.177786D+00  0.167023D+00  0.000000D+00  0.138098D+00 -0.138098D+00
      8   0.000000D+00 -0.522194D+00  0.000000D+00  0.000000D+00  0.000000D+00
      9   0.328083D+00  0.000000D+00  0.581563D+00  0.769804D+00  0.769804D+00
     10   0.000000D+00  0.000000D+00  0.000000D+00  0.000000D+00  0.000000D+00
     11   0.000000D+00  0.000000D+00  0.000000D+00  0.000000D+00  0.000000D+00
     12   0.000000D+00  0.000000D+00 -0.575616D+00 -0.575616D+00 -0.575616D+00
 IB Matrix in Red2BG:
              1            2            3            4            5
     1            1            1            1            1            5
     2            2            3            4            5            6
     3            0            0            0            0            0
     4            0            0            0            0            0
              6            7            8            9           10
     1            2            2            2            3            3
     2            1            1            1            1            1
     3            3            4            5            4            5
     4            0            0            0            0            0
             11           12           13           14           15
     1            4            1            2            3            4
     2            1            5            1            1            1
     3            5            6            5            5            5
     4            0            0            6            6            6
 B Matrix in Red2BG:
                 1             2             3             4             5 
      1  -0.956791D+00  0.439121D+00  0.439121D+00  0.000000D+00  0.952466D+00
      2  -0.290778D+00 -0.387957D+00 -0.387957D+00  0.100000D+01  0.304644D+00
      3   0.000000D+00 -0.810347D+00  0.810347D+00  0.000000D+00  0.000000D+00
      4   0.956791D+00 -0.439121D+00 -0.439121D+00  0.000000D+00 -0.952466D+00
      5   0.290778D+00  0.387957D+00  0.387957D+00 -0.100000D+01 -0.304644D+00
      6   0.000000D+00  0.810347D+00 -0.810347D+00  0.000000D+00  0.000000D+00
      7   0.000000D+00  0.000000D+00  0.000000D+00  0.000000D+00  0.000000D+00
      8   0.000000D+00  0.000000D+00  0.000000D+00  0.000000D+00  0.000000D+00
      9   0.000000D+00  0.000000D+00  0.000000D+00  0.000000D+00  0.000000D+00
     10   0.000000D+00  0.000000D+00  0.000000D+00  0.000000D+00  0.000000D+00
     11   0.000000D+00  0.000000D+00  0.000000D+00  0.000000D+00  0.000000D+00
     12   0.000000D+00  0.000000D+00  0.000000D+00  0.000000D+00  0.000000D+00
                 6             7             8             9            10 
      1   0.738033D-01  0.738033D-01 -0.140778D+00  0.292002D+00  0.888750D-01
      2  -0.242846D+00 -0.242846D+00  0.463223D+00 -0.257979D+00  0.443170D+00
      3  -0.412277D+00  0.412277D+00  0.000000D+00  0.281742D+00 -0.164008D+00
      4   0.341456D+00  0.341456D+00  0.513935D+00 -0.584004D+00 -0.266661D+00
      5   0.450019D+00  0.450019D+00 -0.463223D+00  0.515958D+00 -0.443170D+00
      6   0.538119D+00 -0.538119D+00  0.000000D+00  0.000000D+00  0.492092D+00
      7  -0.415259D+00 -0.415259D+00 -0.373157D+00  0.292002D+00  0.177786D+00
      8  -0.207173D+00 -0.207173D+00  0.000000D+00 -0.257979D+00  0.000000D+00
      9  -0.125841D+00  0.125841D+00  0.000000D+00 -0.281742D+00 -0.328083D+00
     10   0.000000D+00  0.000000D+00  0.000000D+00  0.000000D+00  0.000000D+00
     11   0.000000D+00  0.000000D+00  0.000000D+00  0.000000D+00  0.000000D+00
     12   0.000000D+00  0.000000D+00  0.000000D+00  0.000000D+00  0.000000D+00
                11            12            13            14            15 
      1   0.888750D-01  0.373157D+00  0.000000D+00  0.458674D+00 -0.458674D+00
      2   0.443170D+00  0.000000D+00  0.000000D+00  0.000000D+00  0.000000D+00
      3   0.164008D+00  0.000000D+00 -0.506007D+00  0.248552D+00  0.248552D+00
      4  -0.266661D+00 -0.540180D+00  0.000000D+00 -0.596772D+00  0.596772D+00
      5  -0.443170D+00  0.522194D+00  0.000000D+00  0.000000D+00  0.000000D+00
      6  -0.492092D+00  0.000000D+00  0.500059D+00 -0.442740D+00 -0.442740D+00
      7   0.177786D+00  0.167023D+00  0.000000D+00  0.138098D+00 -0.138098D+00
      8   0.000000D+00 -0.522194D+00  0.000000D+00  0.000000D+00  0.000000D+00
      9   0.328083D+00  0.000000D+00  0.581563D+00  0.769804D+00  0.769804D+00
     10   0.000000D+00  0.000000D+00  0.000000D+00  0.000000D+00  0.000000D+00
     11   0.000000D+00  0.000000D+00  0.000000D+00  0.000000D+00  0.000000D+00
     12   0.000000D+00  0.000000D+00 -0.575616D+00 -0.575616D+00 -0.575616D+00
 G Matrix: 
                 1             2             3             4             5 
      1   0.200000D+01 -0.307338D+00 -0.307338D+00 -0.290778D+00  0.000000D+00
      2  -0.307338D+00  0.200000D+01 -0.313325D+00 -0.387957D+00  0.000000D+00
      3  -0.307338D+00 -0.313325D+00  0.200000D+01 -0.387957D+00  0.000000D+00
      4  -0.290778D+00 -0.387957D+00 -0.387957D+00  0.200000D+01 -0.304644D+00
      5   0.000000D+00  0.000000D+00  0.000000D+00 -0.304644D+00  0.200000D+01
      6  -0.457558D+00 -0.460710D+00  0.411416D+00  0.450019D+00  0.000000D+00
      7  -0.457558D+00  0.411416D+00 -0.460710D+00  0.450019D+00  0.000000D+00
      8  -0.357033D+00  0.405390D+00  0.405390D+00 -0.463223D+00 -0.355420D+00
      9   0.408740D+00 -0.456618D+00 -0.456618D+00  0.515958D+00  0.000000D+00
     10   0.384002D+00 -0.343931D+00  0.453599D+00 -0.443170D+00  0.169335D+00
     11   0.384002D+00  0.453599D+00 -0.343931D+00 -0.443170D+00  0.169335D+00
     12  -0.357033D+00  0.163861D+00  0.163861D+00 -0.522194D+00 -0.355420D+00
     13   0.000000D+00 -0.405221D+00  0.405221D+00  0.000000D+00  0.000000D+00
     14   0.570986D+00  0.967178D-01 -0.620828D+00  0.000000D+00  0.131534D+00
     15  -0.570986D+00  0.620828D+00 -0.967178D-01  0.000000D+00 -0.131534D+00
                 6             7             8             9            10 
      1  -0.457558D+00 -0.457558D+00 -0.357033D+00  0.408740D+00  0.384002D+00
      2  -0.460710D+00  0.411416D+00  0.405390D+00 -0.456618D+00 -0.343931D+00
      3   0.411416D+00 -0.460710D+00  0.405390D+00 -0.456618D+00  0.453599D+00
      4   0.450019D+00  0.450019D+00 -0.463223D+00  0.515958D+00 -0.443170D+00
      5   0.000000D+00  0.000000D+00 -0.355420D+00  0.000000D+00  0.169335D+00
      6   0.107427D+01 -0.760137D-01 -0.155855D+00 -0.704857D-01 -0.133764D+00
      7  -0.760137D-01  0.107427D+01 -0.155855D+00 -0.704857D-01 -0.555291D+00
      8  -0.155855D+00 -0.155855D+00  0.852345D+00 -0.539144D+00  0.189798D-02
      9  -0.704857D-01 -0.704857D-01 -0.539144D+00  0.106967D+01 -0.207511D+00
     10  -0.133764D+00 -0.555291D+00  0.189798D-02 -0.207511D+00  0.880105D+00
     11  -0.555291D+00 -0.133764D+00  0.189798D-02 -0.207511D+00 -0.506774D-01
     12   0.127417D+00  0.127417D+00  0.393351D+00 -0.217925D+00 -0.195543D+00
     13   0.477706D+00 -0.477706D+00  0.000000D+00  0.000000D+00  0.552739D-01
     14  -0.663765D+00  0.344752D-01 -0.358234D+00  0.552478D+00 -0.286741D+00
     15  -0.344752D-01  0.663765D+00  0.358234D+00 -0.552478D+00 -0.654116D+00
                11            12            13            14            15 
      1   0.384002D+00 -0.357033D+00  0.000000D+00  0.570986D+00 -0.570986D+00
      2   0.453599D+00  0.163861D+00 -0.405221D+00  0.967178D-01  0.620828D+00
      3  -0.343931D+00  0.163861D+00  0.405221D+00 -0.620828D+00 -0.967178D-01
      4  -0.443170D+00 -0.522194D+00  0.000000D+00  0.000000D+00  0.000000D+00
      5   0.169335D+00 -0.355420D+00  0.000000D+00  0.131534D+00 -0.131534D+00
      6  -0.555291D+00  0.127417D+00  0.477706D+00 -0.663765D+00 -0.344752D-01
      7  -0.133764D+00  0.127417D+00 -0.477706D+00  0.344752D-01  0.663765D+00
      8   0.189798D-02  0.393351D+00  0.000000D+00 -0.358234D+00  0.358234D+00
      9  -0.207511D+00 -0.217925D+00  0.000000D+00  0.552478D+00 -0.552478D+00
     10  -0.506774D-01 -0.195543D+00  0.552739D-01 -0.286741D+00 -0.654116D+00
     11   0.880105D+00 -0.195543D+00 -0.552739D-01  0.654116D+00  0.286741D+00
     12  -0.195543D+00  0.100431D+01  0.000000D+00 -0.297288D+00  0.297288D+00
     13  -0.552739D-01  0.000000D+00  0.117565D+01  0.557626D+00  0.557626D+00
     14   0.654116D+00 -0.297288D+00  0.557626D+00  0.176732D+01  0.744741D+00
     15   0.286741D+00  0.297288D+00  0.557626D+00  0.744741D+00  0.176732D+01
 Red2BG:  D1=  2.71D-01 OD1=  2.32D-15 B2RMS=  0.00D+00 IAprox=1
 Red2BG is reusing G-inverse.
 G-Inverse: 
                1             2             3             4             5 
      1  0.822881D+00
      2  0.588299D-01  0.815716D+00
      3  0.588299D-01  0.587664D-01  0.815716D+00
      4  0.121530D+00  0.111414D+00  0.111414D+00  0.127542D+01
      5  0.124990D+00 -0.196926D-01 -0.196926D-01  0.301154D+00  0.667302D+00
      6  0.111529D+00  0.124150D+00 -0.632515D-01 -0.310330D+00 -0.117521D+00
      7  0.111529D+00 -0.632515D-01  0.124150D+00 -0.310330D+00 -0.117521D+00
      8  0.222020D+00 -0.216286D+00 -0.216286D+00  0.860271D-01  0.300577D+00
      9 -0.637525D-01  0.121182D+00  0.121182D+00 -0.314716D+00  0.513970D-02
     10 -0.175640D+00  0.242756D+00 -0.211739D+00  0.396514D+00 -0.389425D-01
     11 -0.175640D+00 -0.211739D+00  0.242756D+00  0.396514D+00 -0.389425D-01
     12  0.773235D-01  0.935129D-01  0.935129D-01  0.965782D+00  0.325768D+00
     13  0.000000D+00  0.203307D+00 -0.203307D+00  0.000000D+00  0.000000D+00
     14 -0.178966D+00  0.508163D-01  0.134978D+00  0.980256D-01 -0.268202D-01
     15  0.178966D+00 -0.134978D+00 -0.508163D-01 -0.980256D-01  0.268202D-01
                6             7             8             9            10 
      6  0.657907D+00
      7 -0.281060D-01  0.657907D+00
      8 -0.346605D+00 -0.346605D+00  0.142586D+01
      9 -0.296796D-01 -0.296796D-01  0.252505D+00  0.657831D+00
     10 -0.387961D+00  0.175200D+00 -0.489082D+00 -0.418311D+00  0.145509D+01
     11  0.175200D+00 -0.387961D+00 -0.489082D+00 -0.418311D+00 -0.382394D+00
     12 -0.225895D+00 -0.225895D+00 -0.430736D+00 -0.268073D+00  0.542942D+00
     13  0.140773D+00 -0.140773D+00  0.000000D+00  0.000000D+00  0.293660D+00
     14 -0.221089D+00  0.162198D-01 -0.211436D+00  0.113965D+00  0.249647D+00
     15 -0.162198D-01  0.221089D+00  0.211436D+00 -0.113965D+00 -0.254061D-01
               11            12            13            14            15 
     11  0.145509D+01
     12  0.542942D+00  0.213320D+01
     13 -0.293660D+00  0.000000D+00  0.421147D+00
     14  0.254061D-01  0.242886D+00  0.798793D-01  0.344041D+00
     15 -0.249647D+00 -0.242886D+00  0.798793D-01 -0.216826D-01  0.344041D+00
 Internal  Forces:  Max     0.000036980 RMS     0.000019753
 Search for a local minimum.
 Step number   1 out of a maximum of    2
 All quantities printed in internal units (Hartrees-Bohrs-Radians)
 Second derivative matrix not updated -- analytic derivatives used.
 The second derivative matrix:
                          R1        R2        R3        R4        R5
           R1           0.34349
           R2           0.00330   0.32248
           R3           0.00330   0.00451   0.32248
           R4           0.01226   0.01820   0.01820   0.35949
           R5          -0.00186  -0.00014  -0.00014  -0.00361   0.52538
           A1           0.00629   0.00796  -0.00573  -0.02792  -0.00048
           A2           0.00629  -0.00573   0.00796  -0.02792  -0.00048
           A3           0.00231  -0.00434  -0.00434   0.02947   0.00791
           A4          -0.00479   0.00843   0.00843  -0.02844   0.00122
           A5          -0.00445  -0.00188  -0.00434   0.02539  -0.00394
           A6          -0.00445  -0.00434  -0.00188   0.02539  -0.00394
           A7           0.00309   0.00004   0.00004   0.05218   0.01615
           D1          -0.00000   0.00554  -0.00554   0.00000  -0.00000
           D2          -0.00666  -0.00036   0.00678   0.00074  -0.00224
           D3           0.00666  -0.00678   0.00036  -0.00074   0.00224
                          A1        A2        A3        A4        A5
           A1           0.07274
           A2           0.00400   0.07274
           A3          -0.03932  -0.03932   0.13855
           A4           0.00478   0.00478  -0.00047   0.07517
           A5          -0.03590  -0.00109  -0.03005  -0.04126   0.13727
           A6          -0.00109  -0.03590  -0.03005  -0.04126  -0.03425
           A7          -0.00541  -0.00541   0.02103   0.00158  -0.00588
           D1           0.02121  -0.02121  -0.00000   0.00000   0.01903
           D2          -0.02217  -0.00019  -0.02365   0.01811   0.00367
           D3           0.00019   0.02217   0.02365  -0.01811  -0.02130
                          A6        A7        D1        D2        D3
           A6           0.13727
           A7          -0.00588   0.18498
           D1          -0.01903   0.00000   0.02568
           D2           0.02130  -0.00352  -0.01128   0.02905
           D3          -0.00367   0.00352  -0.01128  -0.01451   0.02905
 ITU=  0
 IAlgDg is returning  0.
 DiagDN:  BShift=  1.00D+00
 Eigenvectors of the second derivative matrix:
                           1         2         3         4         5
     Eigenvalues --     0.00320   0.09061   0.09076   0.13275   0.15802
   1         R1         0.00000  -0.05378   0.00000   0.04046  -0.00187
   2         R2         0.00279   0.03238   0.05406   0.07077  -0.00727
   3         R3        -0.00279   0.03238  -0.05406   0.07077  -0.00727
   4         R4        -0.00000   0.00042  -0.00000  -0.33569  -0.08619
   5         R5         0.00000  -0.00404   0.00000  -0.01041  -0.01841
   6         A1         0.00330   0.32933  -0.55999  -0.35678   0.18530
   7         A2        -0.00330   0.32933   0.55999  -0.35678   0.18530
   8         A3         0.00000   0.07697  -0.00000   0.29140  -0.56460
   9         A4        -0.00000  -0.62272   0.00000  -0.41233   0.00236
  10         A5        -0.00432  -0.02832  -0.07516   0.38910   0.09943
  11         A6         0.00432  -0.02832   0.07516   0.38910   0.09943
  12         A7        -0.00000  -0.00290   0.00000   0.24852   0.75663
  13         D1         0.57838  -0.00000  -0.48492   0.00000   0.00000
  14         D2         0.57680  -0.43747   0.24550   0.02714   0.07881
  15         D3         0.57680   0.43747   0.24550  -0.02714  -0.07881
                           6         7         8         9        10
     Eigenvalues --     0.18518   0.20197   0.31931   0.32338   0.34245
   1         R1         0.00000   0.03259  -0.00000  -0.08214   0.97340
   2         R2        -0.00324  -0.01515  -0.70502   0.67429   0.01575
   3         R3         0.00324  -0.01515   0.70502   0.67429   0.01575
   4         R4         0.00000   0.14623   0.00000  -0.21513  -0.19044
   5         R5         0.00000   0.05463   0.00000   0.00560   0.00850
   6         A1        -0.16991   0.03724  -0.04215   0.05208   0.05690
   7         A2         0.16991   0.03724   0.04215   0.05208   0.05690
   8         A3         0.00000  -0.57601  -0.00000  -0.08918  -0.02264
   9         A4         0.00000  -0.23524  -0.00000   0.09404   0.01727
  10         A5         0.67839   0.35680  -0.00890  -0.05130  -0.04945
  11         A6        -0.67839   0.35680   0.00890  -0.05130  -0.04945
  12         A7        -0.00000  -0.54836  -0.00000  -0.09525  -0.04500
  13         D1         0.12440   0.00000  -0.03547  -0.00000  -0.00000
  14         D2        -0.05630   0.12020   0.02137   0.02289  -0.02689
  15         D3        -0.05630  -0.12020   0.02137  -0.02289   0.02689
                          11        12
     Eigenvalues --     0.40163   0.52654
   1         R1         0.20017   0.00871
   2         R2         0.19683   0.00163
   3         R3         0.19683   0.00163
   4         R4         0.88085   0.00704
   5         R5        -0.00365  -0.99822
   6         A1        -0.09917   0.00215
   7         A2        -0.09917   0.00215
   8         A3         0.12492  -0.02561
   9         A4        -0.09082  -0.00509
  10         A5         0.07548   0.01277
  11         A6         0.07548   0.01277
  12         A7         0.22718  -0.04830
  13         D1         0.00000   0.00000
  14         D2        -0.00197   0.00652
  15         D3         0.00197  -0.00652
 Forces in eigenvector basis: 
                 1 
      1   0.000000D+00
      2   0.166885D-04
      3   0.000000D+00
      4  -0.468242D-04
      5  -0.702725D-05
      6   0.000000D+00
      7   0.129573D-04
      8   0.000000D+00
      9   0.163631D-04
     10   0.244899D-04
     11  -0.390385D-04
     12   0.278065D-04
 Angle between quadratic step and forces=  29.55 degrees.
 Linear search not attempted -- first point.
 IB Matrix in FormBX:
              1            2            3            4            5
     1            1            1            1            1            5
     2            2            3            4            5            6
     3            0            0            0            0            0
     4            0            0            0            0            0
              6            7            8            9           10
     1            2            2            2            3            3
     2            1            1            1            1            1
     3            3            4            5            4            5
     4            0            0            0            0            0
             11           12           13           14           15
     1            4            1            2            3            4
     2            1            5            1            1            1
     3            5            6            5            5            5
     4            0            0            6            6            6
 B Matrix in FormBX:
                 1             2             3             4             5 
      1  -0.956791D+00  0.439121D+00  0.439121D+00  0.000000D+00  0.952466D+00
      2  -0.290778D+00 -0.387957D+00 -0.387957D+00  0.100000D+01  0.304644D+00
      3   0.000000D+00 -0.810347D+00  0.810347D+00  0.000000D+00  0.000000D+00
      4   0.956791D+00 -0.439121D+00 -0.439121D+00  0.000000D+00 -0.952466D+00
      5   0.290778D+00  0.387957D+00  0.387957D+00 -0.100000D+01 -0.304644D+00
      6   0.000000D+00  0.810347D+00 -0.810347D+00  0.000000D+00  0.000000D+00
      7   0.000000D+00  0.000000D+00  0.000000D+00  0.000000D+00  0.000000D+00
      8   0.000000D+00  0.000000D+00  0.000000D+00  0.000000D+00  0.000000D+00
      9   0.000000D+00  0.000000D+00  0.000000D+00  0.000000D+00  0.000000D+00
     10   0.000000D+00  0.000000D+00  0.000000D+00  0.000000D+00  0.000000D+00
     11   0.000000D+00  0.000000D+00  0.000000D+00  0.000000D+00  0.000000D+00
     12   0.000000D+00  0.000000D+00  0.000000D+00  0.000000D+00  0.000000D+00
                 6             7             8             9            10 
      1   0.738033D-01  0.738033D-01 -0.140778D+00  0.292002D+00  0.888750D-01
      2  -0.242846D+00 -0.242846D+00  0.463223D+00 -0.257979D+00  0.443170D+00
      3  -0.412277D+00  0.412277D+00  0.000000D+00  0.281742D+00 -0.164008D+00
      4   0.341456D+00  0.341456D+00  0.513935D+00 -0.584004D+00 -0.266661D+00
      5   0.450019D+00  0.450019D+00 -0.463223D+00  0.515958D+00 -0.443170D+00
      6   0.538119D+00 -0.538119D+00  0.000000D+00  0.000000D+00  0.492092D+00
      7  -0.415259D+00 -0.415259D+00 -0.373157D+00  0.292002D+00  0.177786D+00
      8  -0.207173D+00 -0.207173D+00  0.000000D+00 -0.257979D+00  0.000000D+00
      9  -0.125841D+00  0.125841D+00  0.000000D+00 -0.281742D+00 -0.328083D+00
     10   0.000000D+00  0.000000D+00  0.000000D+00  0.000000D+00  0.000000D+00
     11   0.000000D+00  0.000000D+00  0.000000D+00  0.000000D+00  0.000000D+00
     12   0.000000D+00  0.000000D+00  0.000000D+00  0.000000D+00  0.000000D+00
                11            12            13            14            15 
      1   0.888750D-01  0.373157D+00  0.000000D+00  0.458674D+00 -0.458674D+00
      2   0.443170D+00  0.000000D+00  0.000000D+00  0.000000D+00  0.000000D+00
      3   0.164008D+00  0.000000D+00 -0.506007D+00  0.248552D+00  0.248552D+00
      4  -0.266661D+00 -0.540180D+00  0.000000D+00 -0.596772D+00  0.596772D+00
      5  -0.443170D+00  0.522194D+00  0.000000D+00  0.000000D+00  0.000000D+00
      6  -0.492092D+00  0.000000D+00  0.500059D+00 -0.442740D+00 -0.442740D+00
      7   0.177786D+00  0.167023D+00  0.000000D+00  0.138098D+00 -0.138098D+00
      8   0.000000D+00 -0.522194D+00  0.000000D+00  0.000000D+00  0.000000D+00
      9   0.328083D+00  0.000000D+00  0.581563D+00  0.769804D+00  0.769804D+00
     10   0.000000D+00  0.000000D+00  0.000000D+00  0.000000D+00  0.000000D+00
     11   0.000000D+00  0.000000D+00  0.000000D+00  0.000000D+00  0.000000D+00
     12   0.000000D+00  0.000000D+00 -0.575616D+00 -0.575616D+00 -0.575616D+00
 Iteration  1 RMS(Cart)=  0.00014695 RMS(Int)=  0.00000002
 Iteration  2 RMS(Cart)=  0.00000001 RMS(Int)=  0.00000001
 Input Coordinates in SymCor: 
                 1             2             3             4             5 
      1   0.882463D-01  0.206459D+01 -0.825219D+00 -0.825219D+00  0.882862D-01
      2   0.124785D+01  0.184825D+01  0.205442D+01  0.205442D+01 -0.143201D+01
      3   0.000000D+00  0.000000D+00  0.168533D+01 -0.168533D+01  0.000000D+00
                 6 
      1  -0.164904D+01
      2  -0.198735D+01
      3   0.000000D+00
 Symmetrized Coordinates in SymCor: 
                 1             2             3             4             5 
      1   0.882468D-01  0.206459D+01 -0.825219D+00 -0.825219D+00  0.882867D-01
      2   0.124785D+01  0.184825D+01  0.205442D+01  0.205442D+01 -0.143201D+01
      3   0.000000D+00  0.000000D+00  0.168533D+01 -0.168533D+01  0.000000D+00
                 6 
      1  -0.164904D+01
      2  -0.198735D+01
      3   0.000000D+00
 Final Coordinates in SymCor: 
                 1             2             3             4             5 
      1   0.882463D-01  0.206459D+01 -0.825219D+00 -0.825219D+00  0.882862D-01
      2   0.124785D+01  0.184825D+01  0.205442D+01  0.205442D+01 -0.143201D+01
      3   0.000000D+00  0.000000D+00  0.168533D+01 -0.168533D+01  0.000000D+00
                 6 
      1  -0.164904D+01
      2  -0.198735D+01
      3   0.000000D+00
 ClnCor:  largest displacement from symmetrization is 2.19D-13 for atom     4.
 Variable       Old X    -DE/DX   Delta X   Delta X   Delta X     New X
                                 (Linear)    (Quad)   (Total)
    R1        2.06551   0.00001   0.00000   0.00002   0.00002   2.06553
    R2        2.07974   0.00000   0.00000  -0.00000  -0.00000   2.07974
    R3        2.07974   0.00000   0.00000  -0.00000  -0.00000   2.07974
    R4        2.67984  -0.00002   0.00000   0.00002   0.00002   2.67986
    R5        1.82397  -0.00003   0.00000  -0.00004  -0.00004   1.82393
    A1        1.88319   0.00003   0.00000   0.00020   0.00020   1.88339
    A2        1.88319   0.00003   0.00000   0.00020   0.00020   1.88339
    A3        1.86584  -0.00002   0.00000  -0.00012  -0.00012   1.86572
    A4        1.88949   0.00001   0.00000   0.00003   0.00003   1.88952
    A5        1.96921  -0.00002   0.00000  -0.00014  -0.00014   1.96907
    A6        1.96921  -0.00002   0.00000  -0.00014  -0.00014   1.96907
    A7        1.88036  -0.00004   0.00000  -0.00019  -0.00019   1.88017
    D1        3.14159  -0.00000   0.00000  -0.00000   0.00000   3.14159
    D2        1.07420  -0.00001   0.00000  -0.00009  -0.00009   1.07411
    D3       -1.07420   0.00001   0.00000   0.00009   0.00009  -1.07411
         Item               Value     Threshold  Converged?
 Maximum Force            0.000037     0.000450     YES
 RMS     Force            0.000020     0.000300     YES
 Maximum Displacement     0.000375     0.001800     YES
 RMS     Displacement     0.000147     0.001200     YES
 Predicted change in Energy=-1.428779D-08
 Optimization completed.
    -- Stationary point found.
                           ----------------------------
                           !   Optimized Parameters   !
                           ! (Angstroms and Degrees)  !
 --------------------------                            --------------------------
 ! Name  Definition              Value          Derivative Info.                !
 --------------------------------------------------------------------------------
 ! R1    R(1,2)                  1.093          -DE/DX =    0.0                 !
 ! R2    R(1,3)                  1.1006         -DE/DX =    0.0                 !
 ! R3    R(1,4)                  1.1006         -DE/DX =    0.0                 !
 ! R4    R(1,5)                  1.4181         -DE/DX =    0.0                 !
 ! R5    R(5,6)                  0.9652         -DE/DX =    0.0                 !
 ! A1    A(2,1,3)              107.8989         -DE/DX =    0.0                 !
 ! A2    A(2,1,4)              107.8989         -DE/DX =    0.0                 !
 ! A3    A(2,1,5)              106.9045         -DE/DX =    0.0                 !
 ! A4    A(3,1,4)              108.2597         -DE/DX =    0.0                 !
 ! A5    A(3,1,5)              112.8274         -DE/DX =    0.0                 !
 ! A6    A(4,1,5)              112.8274         -DE/DX =    0.0                 !
 ! A7    A(1,5,6)              107.7368         -DE/DX =    0.0                 !
 ! D1    D(2,1,5,6)            180.0            -DE/DX =    0.0                 !
 ! D2    D(3,1,5,6)             61.5471         -DE/DX =    0.0                 !
 ! D3    D(4,1,5,6)            -61.5471         -DE/DX =    0.0                 !
 --------------------------------------------------------------------------------
 GradGradGradGradGradGradGradGradGradGradGradGradGradGradGradGradGradGrad

 Leave Link  103 at Sat Aug 10 16:32:29 2019, MaxMem=  4294967296 cpu:               0.2 elap:               0.0

 ----------------------------------------------------------------------

 Electric dipole moment (input orientation):
 (Debye = 10**-18 statcoulomb cm , SI units = C m)
                  (au)            (Debye)         (10**-30 SI)
   Tot        0.654486D+00      0.166354D+01      0.554896D+01
   x         -0.555533D+00     -0.141202D+01     -0.471000D+01
   y          0.346028D+00      0.879515D+00      0.293374D+01
   z          0.000000D+00      0.000000D+00      0.000000D+00

 Dipole polarizability, Alpha (input orientation).
 (esu units = cm**3 , SI units = C**2 m**2 J**-1)
 Alpha(0;0):
               (au)            (10**-24 esu)      (10**-40 SI)
   iso        0.160164D+02      0.237339D+01      0.264075D+01
   aniso      0.330973D+01      0.490451D+00      0.545700D+00
   xx         0.164325D+02      0.243504D+01      0.270935D+01
   yx         0.110836D+01      0.164242D+00      0.182744D+00
   yy         0.173227D+02      0.256695D+01      0.285612D+01
   zx         0.000000D+00      0.000000D+00      0.000000D+00
   zy         0.000000D+00      0.000000D+00      0.000000D+00
   zz         0.142941D+02      0.211816D+01      0.235677D+01

 ----------------------------------------------------------------------

 Dipole orientation:
     6          0.58461003          0.93856660          0.58483747
     1          1.40655492          2.25816426         -0.77508599
     1          2.12192268          0.21901565          1.78659966
     1         -0.73908710          2.00106821          1.78659966
     8         -0.61800905         -0.99218732         -0.83199570
     1         -1.35298257         -2.17215612          0.34883350

 Electric dipole moment (dipole orientation):
 (Debye = 10**-18 statcoulomb cm , SI units = C m)
                  (au)            (Debye)         (10**-30 SI)
   Tot        0.654486D+00      0.166354D+01      0.554896D+01
   x          0.000000D+00      0.000000D+00      0.000000D+00
   y          0.000000D+00      0.000000D+00      0.000000D+00
   z          0.654486D+00      0.166354D+01      0.554896D+01

 Dipole polarizability, Alpha (dipole orientation).
 (esu units = cm**3 , SI units = C**2 m**2 J**-1)
 Alpha(0;0):
               (au)            (10**-24 esu)      (10**-40 SI)
   iso        0.160164D+02      0.237339D+01      0.264075D+01
   aniso      0.330973D+01      0.490451D+00      0.545700D+00
   xx         0.153491D+02      0.227451D+01      0.253073D+01
   yx         0.169390D+01      0.251010D+00      0.279286D+00
   yy         0.170135D+02      0.252115D+01      0.280515D+01
   zx        -0.471852D-01     -0.699212D-02     -0.777979D-02
   zy        -0.757538D-01     -0.112256D-01     -0.124901D-01
   zz         0.156865D+02      0.232450D+01      0.258636D+01

 ----------------------------------------------------------------------

 Test job not archived.
 1\1\NSC-N973\Freq\RB3LYP\6-31G(d,p)\C1H4O1\X_KJEJO\10-Aug-2019\0\\# fr
 eq(hpmodes,intmodes) iop(1/33=3) b3lyp/6-31g(d,p) geom=connectivity io
 p(7/75=-1)\\name\\0,1\C,0.046671,0.660292,0.\H,1.092462,0.978118,0.\H,
 -0.436604,1.087258,0.891828\H,-0.436604,1.087258,-0.891828\O,0.046671,
 -0.757816,0.\H,-0.872653,-1.05186,0.\\Version=ES64L-G16RevB.01\State=1
 -A'\HF=-115.7239642\RMSD=4.865e-09\RMSF=1.457e-05\ZeroPoint=0.0513992\
 Thermal=0.0547022\Dipole=-0.5555327,0.3460277,0.\DipoleDeriv=0.2876996
 ,0.0233676,0.,0.0036261,0.846686,0.,0.,0.,0.4188481,-0.1342414,-0.0715
 477,0.,-0.0444221,0.0026791,0.,0.,0.,0.0635846,-0.0081887,0.0628306,0.
 0949378,0.0219049,-0.0956448,-0.072234,0.0898729,-0.097257,-0.1472625,
 -0.0081887,0.0628306,-0.0949378,0.0219049,-0.0956448,0.072234,-0.08987
 29,0.097257,-0.1472625,-0.2286928,-0.0436663,0.,-0.0004962,-0.917487,0
 .,0.,0.,-0.5506363,0.091612,-0.0338149,0.,-0.0025177,0.2594116,0.,0.,0
 .,0.3627287\Polar=16.4324853,1.1083619,17.3226692,0.,0.,14.2940587\Qua
 drupole=0.84007,-0.2106729,-0.629397,1.5561509,0.,0.\PG=CS [SG(C1H2O1)
 ,X(H2)]\NImag=0\\0.60536435,0.01130729,0.48323282,0.,0.,0.55657434,-0.
 30269776,-0.06864014,0.,0.32082211,-0.05634463,-0.06336421,0.,0.076666
 37,0.08435256,0.,0.,-0.05204004,0.,0.,0.04764562,-0.10357354,0.0362788
 0,0.08960828,-0.01238346,0.01011487,0.02712610,0.10230925,0.03351194,-
 0.07701608,-0.06446099,-0.00228221,0.00489594,0.00691099,-0.04353575,0
 .09653834,0.09058224,-0.06624120,-0.22065582,-0.00077102,0.00117217,0.
 00097326,-0.09991981,0.07881992,0.23256330,-0.10357354,0.03627880,-0.0
 8960828,-0.01238346,0.01011487,-0.02712610,0.00754917,-0.00496542,0.01
 336012,0.10230925,0.03351194,-0.07701608,0.06446099,-0.00228221,0.0048
 9594,-0.00691099,-0.00496542,0.00701629,-0.00748103,-0.04353575,0.0965
 3834,-0.09058224,0.06624120,-0.22065582,0.00077102,-0.00117217,0.00097
 326,-0.01336012,0.00748103,-0.02210792,0.09991981,-0.07881992,0.232563
 30,-0.09407443,-0.02514266,0.,0.00395712,-0.03957285,0.,0.00527980,0.0
 1566597,-0.00309494,0.00527980,0.01566597,0.00309494,0.55908344,0.0243
 1334,-0.24445422,0.,-0.00478371,-0.02283201,0.,0.00216690,-0.03302719,
 -0.00550092,0.00216690,-0.03302719,0.00550092,0.13180114,0.41154086,0.
 ,0.,-0.06216668,0.,0.,0.00189472,-0.00193385,-0.02866068,0.00887266,0.
 00193385,0.02866068,0.00887266,0.,0.,0.04593725,-0.00144510,0.00991790
 ,0.,0.00268545,-0.00097864,0.,0.00081877,0.00160549,-0.00015659,0.0008
 1877,0.00160549,0.00015659,-0.47952574,-0.15566457,0.,0.47664784,-0.04
 629988,-0.02138223,0.,0.00132192,-0.00794822,0.,-0.00005940,0.00159271
 ,-0.00076893,-0.00005940,0.00159271,0.00076893,-0.09841757,-0.07820025
 ,0.,0.14351434,0.10434527,0.,0.,-0.00105597,0.,0.,0.00055317,-0.001520
 60,-0.00009027,0.00035452,0.00152060,0.00009027,0.00035452,0.,0.,-0.00
 341061,0.,0.,0.00320437\\0.00000548,-0.00003021,0.,-0.00001930,0.00002
 042,0.,0.00001387,0.00001692,-0.00000169,0.00001387,0.00001692,0.00000
 169,0.00000493,0.00000308,0.,-0.00001885,-0.00002713,0.\\\@


 We find comfort among those who agree with us -- growth among those who don't.
 -- Frank A. Clark
 Job cpu time:       0 days  0 hours  0 minutes 49.4 seconds.
 Elapsed time:       0 days  0 hours  0 minutes  4.1 seconds.
 File lengths (MBytes):  RWF=      6 Int=      0 D2E=      0 Chk=      8 Scr=      1
 Normal termination of Gaussian 16 at Sat Aug 10 16:32:29 2019.
