 Entering Gaussian System, Link 0=/software/sse/easybuild/prefix/software/Gaussian/16.B.01-avx2-nsc1-bdist/g16/g16.orig
 Input=freq-hp.wrap
 Output=freq-hp.log
 Initial command:
 /software/sse/easybuild/prefix/software/Gaussian/16.B.01-avx2-nsc1-bdist/g16/l1.exe "/scratch/local/Gau-283084.inp" -scrdir="/scratch/local/"
 Default is to use a total of  16 processors:
                               16 via shared-memory
                                1 via Linda
 Entering Link 1 = /software/sse/easybuild/prefix/software/Gaussian/16.B.01-avx2-nsc1-bdist/g16/l1.exe PID=    283094.
  
 Copyright (c) 1988-2017, Gaussian, Inc.  All Rights Reserved.
  
 This is part of the Gaussian(R) 16 program.  It is based on
 the Gaussian(R) 09 system (copyright 2009, Gaussian, Inc.),
 the Gaussian(R) 03 system (copyright 2003, Gaussian, Inc.),
 the Gaussian(R) 98 system (copyright 1998, Gaussian, Inc.),
 the Gaussian(R) 94 system (copyright 1995, Gaussian, Inc.),
 the Gaussian 92(TM) system (copyright 1992, Gaussian, Inc.),
 the Gaussian 90(TM) system (copyright 1990, Gaussian, Inc.),
 the Gaussian 88(TM) system (copyright 1988, Gaussian, Inc.),
 the Gaussian 86(TM) system (copyright 1986, Carnegie Mellon
 University), and the Gaussian 82(TM) system (copyright 1983,
 Carnegie Mellon University). Gaussian is a federally registered
 trademark of Gaussian, Inc.
  
 This software contains proprietary and confidential information,
 including trade secrets, belonging to Gaussian, Inc.
  
 This software is provided under written license and may be
 used, copied, transmitted, or stored only in accord with that
 written license.
  
 The following legend is applicable only to US Government
 contracts under FAR:
  
                    RESTRICTED RIGHTS LEGEND
  
 Use, reproduction and disclosure by the US Government is
 subject to restrictions as set forth in subparagraphs (a)
 and (c) of the Commercial Computer Software - Restricted
 Rights clause in FAR 52.227-19.
  
 Gaussian, Inc.
 340 Quinnipiac St., Bldg. 40, Wallingford CT 06492
  
  
 ---------------------------------------------------------------
 Warning -- This program may not be used in any manner that
 competes with the business of Gaussian, Inc. or will provide
 assistance to any competitor of Gaussian, Inc.  The licensee
 of this program is prohibited from giving any competitor of
 Gaussian, Inc. access to this program.  By using this program,
 the user acknowledges that Gaussian, Inc. is engaged in the
 business of creating and licensing software in the field of
 computational chemistry and represents and warrants to the
 licensee that it is not a competitor of Gaussian, Inc. and that
 it will not use this program in any manner prohibited above.
 ---------------------------------------------------------------
  

 Cite this work as:
 Gaussian 16, Revision B.01,
 M. J. Frisch, G. W. Trucks, H. B. Schlegel, G. E. Scuseria, 
 M. A. Robb, J. R. Cheeseman, G. Scalmani, V. Barone, 
 G. A. Petersson, H. Nakatsuji, X. Li, M. Caricato, A. V. Marenich, 
 J. Bloino, B. G. Janesko, R. Gomperts, B. Mennucci, H. P. Hratchian, 
 J. V. Ortiz, A. F. Izmaylov, J. L. Sonnenberg, D. Williams-Young, 
 F. Ding, F. Lipparini, F. Egidi, J. Goings, B. Peng, A. Petrone, 
 T. Henderson, D. Ranasinghe, V. G. Zakrzewski, J. Gao, N. Rega, 
 G. Zheng, W. Liang, M. Hada, M. Ehara, K. Toyota, R. Fukuda, 
 J. Hasegawa, M. Ishida, T. Nakajima, Y. Honda, O. Kitao, H. Nakai, 
 T. Vreven, K. Throssell, J. A. Montgomery, Jr., J. E. Peralta, 
 F. Ogliaro, M. J. Bearpark, J. J. Heyd, E. N. Brothers, K. N. Kudin, 
 V. N. Staroverov, T. A. Keith, R. Kobayashi, J. Normand, 
 K. Raghavachari, A. P. Rendell, J. C. Burant, S. S. Iyengar, 
 J. Tomasi, M. Cossi, J. M. Millam, M. Klene, C. Adamo, R. Cammi, 
 J. W. Ochterski, R. L. Martin, K. Morokuma, O. Farkas, 
 J. B. Foresman, and D. J. Fox, Gaussian, Inc., Wallingford CT, 2016.
 
 ******************************************
 Gaussian 16:  ES64L-G16RevB.01 20-Dec-2017
                10-Aug-2019 
 ******************************************
 %chk=freq.chk
 ----------------------------------------------------------------------
 # freq(hpmodes,intmodes) iop(1/33=3) b3lyp/6-31g(d,p) geom=connectivit
 y iop(7/75=-1)
 ----------------------------------------------------------------------
 1/10=4,18=20,30=1,33=3,38=1,57=2/1,3;
 2/9=110,12=2,17=6,18=5,40=1/2;
 3/5=1,6=6,7=101,11=2,25=1,30=1,71=2,74=-5,140=1/1,2,3;
 4//1;
 5/5=2,38=5,98=1/2;
 8/6=4,10=90,11=11/1;
 11/6=1,8=1,9=11,15=111,16=1/1,2,10;
 10/6=1/2;
 6/7=2,8=2,9=2,10=2,28=1/1;
 7/8=31,10=1,25=1,75=-1/1,2,3,16;
 1/10=4,18=20,30=1,33=3/3;
 99//99;
 ONIOM results not found on unit 2.
 ----
 name
 ----
 TstMul:  ICh=     0
 TstMul:  Mul=     1
 TstMul:  ICh=     0
 TstMul:  Mul=     1
 Symbolic Z-matrix:
 Charge =  0 Multiplicity = 1
 C                     0.        0.       -0.62977 
 H                     0.        1.03178  -0.99939 
 H                    -0.89355  -0.51589  -0.99939 
 H                     0.89355  -0.51589  -0.99939 
 F                     0.        0.        0.75298 
 
 RdStrC is calling ZToCFu for IStruc=1 NZ=     5.
                                ZToCFu                                
 ---------------------------------------------------------------------
 Center     Atomic      Atomic             Coordinates (Angstroms)
 Number     Number       Type             X           Y           Z
 ---------------------------------------------------------------------
      1          6           0        0.000000    0.000000   -0.629773
      2          1           0        0.000000    1.031782   -0.999387
      3          1           0       -0.893550   -0.515891   -0.999387
      4          1           0        0.893550   -0.515891   -0.999387
      5          9           0        0.000000    0.000000    0.752978
 ---------------------------------------------------------------------
 Connectivity in DoCon:
 I=     1 IAn=  6 IBond, RBType=     2  1.00     3  1.00     4  1.00     5  1.00
 I=     2 IAn=  1 IBond, RBType=     1  1.00
 I=     3 IAn=  1 IBond, RBType=     1  1.00
 I=     4 IAn=  1 IBond, RBType=     1  1.00
 I=     5 IAn=  9 IBond, RBType=     1  1.00
 After GenITR:
 ITRead=  0  0  0  0  0
 MicOpt= -1 -1 -1 -1 -1
 List IsCon N=      5 M=      2:
 I=      1 Vals=      2      1 |      3      1 |      4      1 |      5      1 |
 I=      2 Vals=      1      1 |
 I=      3 Vals=      1      1 |
 I=      4 Vals=      1      1 |
 I=      5 Vals=      1      1 |
 Coordinate R1 contains atom 1 which is already in QM block.
 Coordinate R1 contains atom 2 which is already in QM block.
 Coordinate R2 contains atom 1 which is already in QM block.
 Coordinate R2 contains atom 3 which is already in QM block.
 Coordinate R3 contains atom 1 which is already in QM block.
 Coordinate R3 contains atom 4 which is already in QM block.
 Coordinate R4 contains atom 1 which is already in QM block.
 Coordinate R4 contains atom 5 which is already in QM block.
 Coordinate A1 contains atom 2 which is already in QM block.
 Coordinate A1 contains atom 1 which is already in QM block.
 Coordinate A1 contains atom 1 which is already in QM block.
 Coordinate A2 contains atom 2 which is already in QM block.
 Coordinate A2 contains atom 1 which is already in QM block.
 Coordinate A2 contains atom 1 which is already in QM block.
 Coordinate A3 contains atom 2 which is already in QM block.
 Coordinate A3 contains atom 1 which is already in QM block.
 Coordinate A3 contains atom 1 which is already in QM block.
 Coordinate A4 contains atom 3 which is already in QM block.
 Coordinate A4 contains atom 1 which is already in QM block.
 Coordinate A4 contains atom 1 which is already in QM block.
 Coordinate A5 contains atom 3 which is already in QM block.
 Coordinate A5 contains atom 1 which is already in QM block.
 Coordinate A5 contains atom 1 which is already in QM block.
 Coordinate A6 contains atom 4 which is already in QM block.
 Coordinate A6 contains atom 1 which is already in QM block.
 Coordinate A6 contains atom 1 which is already in QM block.
 Coordinate D1 contains atom 2 which is already in QM block.
 Coordinate D1 contains atom 1 which is already in QM block.
 Coordinate D1 contains atom 4 which is already in QM block.
 Coordinate D1 contains atom 3 which is already in QM block.
 Coordinate D2 contains atom 2 which is already in QM block.
 Coordinate D2 contains atom 1 which is already in QM block.
 Coordinate D2 contains atom 5 which is already in QM block.
 Coordinate D2 contains atom 3 which is already in QM block.
 Coordinate D3 contains atom 2 which is already in QM block.
 Coordinate D3 contains atom 1 which is already in QM block.
 Coordinate D3 contains atom 5 which is already in QM block.
 Coordinate D3 contains atom 4 which is already in QM block.
 Coordinate D4 contains atom 3 which is already in QM block.
 Coordinate D4 contains atom 1 which is already in QM block.
 Coordinate D4 contains atom 5 which is already in QM block.
 Coordinate D4 contains atom 4 which is already in QM block.
 Saved connectivity
 I=     1 IAn=  6 IBond, RBType=     2  1.00     3  1.00     4  1.00     5  1.00
 I=     2 IAn=  1 IBond, RBType=     1  1.00
 I=     3 IAn=  1 IBond, RBType=     1  1.00
 I=     4 IAn=  1 IBond, RBType=     1  1.00
 I=     5 IAn=  9 IBond, RBType=     1  1.00
 ITRead=  0  0  0  0  0
 MicOpt= -1 -1 -1 -1 -1
 NAtoms=      5 NQM=        5 NQMF=       0 NMMI=      0 NMMIF=      0
                NMic=       0 NMicF=      0.
 No MM parameters found.
 Leave Link  101 at Sat Aug 10 16:32:26 2019, MaxMem=  4294967296 cpu:               5.5 elap:               0.4

 GradGradGradGradGradGradGradGradGradGradGradGradGradGradGradGradGradGrad
 Berny optimization.
 GetPCM: File not found, return IValue=0.
 Optmz: redundant internal coordinate code flag= 1
 Initialization pass.
                           ----------------------------
                           !    Initial Parameters    !
                           ! (Angstroms and Degrees)  !
 --------------------------                            --------------------------
 ! Name  Definition              Value          Derivative Info.                !
 --------------------------------------------------------------------------------
 ! R1    R(1,2)                  1.096          calculate D2E/DX2 analytically  !
 ! R2    R(1,3)                  1.096          calculate D2E/DX2 analytically  !
 ! R3    R(1,4)                  1.096          calculate D2E/DX2 analytically  !
 ! R4    R(1,5)                  1.3828         calculate D2E/DX2 analytically  !
 ! A1    A(2,1,3)              109.2324         calculate D2E/DX2 analytically  !
 ! A2    A(2,1,4)              109.2324         calculate D2E/DX2 analytically  !
 ! A3    A(2,1,5)              109.709          calculate D2E/DX2 analytically  !
 ! A4    A(3,1,4)              109.2324         calculate D2E/DX2 analytically  !
 ! A5    A(3,1,5)              109.709          calculate D2E/DX2 analytically  !
 ! A6    A(4,1,5)              109.709          calculate D2E/DX2 analytically  !
 ! D1    D(2,1,4,3)           -119.4197         calculate D2E/DX2 analytically  !
 ! D2    D(2,1,5,3)            120.0            calculate D2E/DX2 analytically  !
 ! D3    D(2,1,5,4)           -120.0            calculate D2E/DX2 analytically  !
 ! D4    D(3,1,5,4)            120.0            calculate D2E/DX2 analytically  !
 --------------------------------------------------------------------------------
 Maximum allowed force set to 1.00D+20.
 Trust Radius=3.00D-01 FncErr=1.00D-07 GrdErr=1.00D-07 EigMax=2.50D+02 EigMin=1.00D-04
 Number of steps in this run=      2 maximum allowed number of steps=      2.
 GradGradGradGradGradGradGradGradGradGradGradGradGradGradGradGradGradGrad

 Leave Link  103 at Sat Aug 10 16:32:26 2019, MaxMem=  4294967296 cpu:               0.6 elap:               0.3
                          Input orientation:                          
 ---------------------------------------------------------------------
 Center     Atomic      Atomic             Coordinates (Angstroms)
 Number     Number       Type             X           Y           Z
 ---------------------------------------------------------------------
      1          6           0        0.000000    0.000000   -0.629773
      2          1           0        0.000000    1.031782   -0.999387
      3          1           0       -0.893550   -0.515891   -0.999387
      4          1           0        0.893550   -0.515891   -0.999387
      5          9           0        0.000000    0.000000    0.752978
 ---------------------------------------------------------------------
                    Distance matrix (angstroms):
                    1          2          3          4          5
     1  C    0.000000
     2  H    1.095988   0.000000
     3  H    1.095988   1.787099   0.000000
     4  H    1.095988   1.787099   1.787100   0.000000
     5  F    1.382751   2.033558   2.033558   2.033558   0.000000
 Stoichiometry    CH3F
 Framework group  C3V[C3(CF),3SGV(H)]
 Deg. of freedom     3
 Full point group                 C3V     NOp   6
 Largest Abelian subgroup         CS      NOp   2
 Largest concise Abelian subgroup CS      NOp   2
                         Standard orientation:                         
 ---------------------------------------------------------------------
 Center     Atomic      Atomic             Coordinates (Angstroms)
 Number     Number       Type             X           Y           Z
 ---------------------------------------------------------------------
      1          6           0        0.000000    0.000000   -0.629773
      2          1           0       -0.000000    1.031782   -0.999387
      3          1           0       -0.893549   -0.515891   -0.999387
      4          1           0        0.893549   -0.515891   -0.999387
      5          9           0        0.000000    0.000000    0.752978
 ---------------------------------------------------------------------
 Rotational constants (GHZ):         157.0127455          25.5862689          25.5862689
 Standard basis: 6-31G(d,p) (6D, 7F)
 There are    31 symmetry adapted cartesian basis functions of A'  symmetry.
 There are    14 symmetry adapted cartesian basis functions of A"  symmetry.
 There are    31 symmetry adapted basis functions of A'  symmetry.
 There are    14 symmetry adapted basis functions of A"  symmetry.
    45 basis functions,    77 primitive gaussians,    45 cartesian basis functions
     9 alpha electrons        9 beta electrons
       nuclear repulsion energy        37.2710361449 Hartrees.
 NAtoms=    5 NActive=    5 NUniq=    3 SFac= 2.78D+00 NAtFMM=   60 NAOKFM=F Big=F
 Integral buffers will be    131072 words long.
 Raffenetti 2 integral format.
 Two-electron integral symmetry is turned on.
 One-electron integrals computed using PRISM.
 NBasis=    45 RedAO= T EigKep=  6.38D-03  NBF=    31    14
 NBsUse=    45 1.00D-06 EigRej= -1.00D+00 NBFU=    31    14
 ExpMin= 1.61D-01 ExpMax= 7.00D+03 ExpMxC= 1.05D+03 IAcc=3 IRadAn=         5 AccDes= 0.00D+00
 Harris functional with IExCor=  402 and IRadAn=       5 diagonalized for initial guess.
 HarFok:  IExCor=  402 AccDes= 0.00D+00 IRadAn=         5 IDoV= 1 UseB2=F ITyADJ=14
 ICtDFT=  3500011 ScaDFX=  1.000000  1.000000  1.000000  1.000000
 FoFCou: FMM=F IPFlag=           0 FMFlag=      100000 FMFlg1=           0
         NFxFlg=           0 DoJE=T BraDBF=F KetDBF=T FulRan=T
         wScrn=  0.000000 ICntrl=       500 IOpCl=  0 I1Cent=   200000004 NGrid=           0
         NMat0=    1 NMatS0=      1 NMatT0=    0 NMatD0=    1 NMtDS0=    0 NMtDT0=    0
 Petite list used in FoFCou.
 Initial guess orbital symmetries:
       Occupied  (A1) (A1) (A1) (A1) (A1) (E) (E) (E) (E)
       Virtual   (A1) (A1) (E) (E) (A1) (E) (E) (A1) (E) (E) (A1)
                 (A1) (E) (E) (E) (E) (A1) (E) (E) (E) (E) (A1)
                 (A2) (E) (E) (E) (E) (A1) (E) (E) (A1) (A1) (E)
                 (E) (A1) (A1)
 The electronic state of the initial guess is 1-A1.
 Keep R1 ints in memory in symmetry-blocked form, NReq=14435023.
 Requested convergence on RMS density matrix=1.00D-08 within 128 cycles.
 Requested convergence on MAX density matrix=1.00D-06.
 Requested convergence on             energy=1.00D-06.
 No special actions if energy rises.
 Integral accuracy reduced to 1.0D-05 until final iterations.
 Initial convergence to 1.0D-05 achieved.  Increase integral accuracy.
 SCF Done:  E(RB3LYP) =  -139.738292307     A.U. after   10 cycles
            NFock= 10  Conv=0.82D-08     -V/T= 2.0074
 DoSCS=F DFT=T ScalE2(SS,OS)=  1.000000  1.000000
 Range of M.O.s used for correlation:     1    45
 NBasis=    45 NAE=     9 NBE=     9 NFC=     0 NFV=     0
 NROrb=     45 NOA=     9 NOB=     9 NVA=    36 NVB=    36
 Symmetrizing basis deriv contribution to polar:
 IMax=3 JMax=2 DiffMx= 0.00D+00
 G2DrvN: will do     6 centers at a time, making    1 passes.
 Calling FoFCou, ICntrl=  3107 FMM=F I1Cent=   0 AccDes= 0.00D+00.
 End of G2Drv F.D. properties file   721 does not exist.
 End of G2Drv F.D. properties file   722 does not exist.
 End of G2Drv F.D. properties file   788 does not exist.
          IDoAtm=11111
          Differentiating once with respect to electric field.
                with respect to dipole field.
          Differentiating once with respect to nuclear coordinates.
 Keep R1 ints in memory in symmetry-blocked form, NReq=14383519.
          There are    12 degrees of freedom in the 1st order CPHF.  IDoFFX=4 NUNeed=    12.
     12 vectors produced by pass  0 Test12= 2.70D-15 8.33D-09 XBig12= 6.55D+00 1.75D+00.
 AX will form    12 AO Fock derivatives at one time.
     12 vectors produced by pass  1 Test12= 2.70D-15 8.33D-09 XBig12= 7.20D-01 2.95D-01.
     12 vectors produced by pass  2 Test12= 2.70D-15 8.33D-09 XBig12= 3.45D-03 1.97D-02.
     12 vectors produced by pass  3 Test12= 2.70D-15 8.33D-09 XBig12= 4.96D-06 6.64D-04.
     12 vectors produced by pass  4 Test12= 2.70D-15 8.33D-09 XBig12= 4.82D-09 2.62D-05.
      6 vectors produced by pass  5 Test12= 2.70D-15 8.33D-09 XBig12= 2.90D-12 6.40D-07.
      2 vectors produced by pass  6 Test12= 2.70D-15 8.33D-09 XBig12= 2.27D-15 1.93D-08.
 InvSVY:  IOpt=1 It=  1 EMax= 1.78D-15
 Solved reduced A of dimension    68 with    12 vectors.
 Isotropic polarizability for W=    0.000000       13.07 Bohr**3.
 End of Minotr F.D. properties file   721 does not exist.
 End of Minotr F.D. properties file   722 does not exist.
 End of Minotr F.D. properties file   788 does not exist.

 **********************************************************************

            Population analysis using the SCF Density.

 **********************************************************************

 Orbital symmetries:
       Occupied  (A1) (A1) (A1) (A1) (A1) (E) (E) (E) (E)
       Virtual   (A1) (A1) (E) (E) (A1) (E) (E) (E) (E) (A1) (A1)
                 (A1) (E) (E) (E) (E) (A1) (E) (E) (E) (E) (A1)
                 (A2) (E) (E) (E) (E) (A1) (E) (E) (A1) (A1) (E)
                 (E) (A1) (A1)
 The electronic state is 1-A1.
 Alpha  occ. eigenvalues --  -24.66649 -10.25562  -1.17354  -0.69512  -0.47610
 Alpha  occ. eigenvalues --   -0.47149  -0.47149  -0.33243  -0.33243
 Alpha virt. eigenvalues --    0.10593   0.13147   0.16453   0.16453   0.51653
 Alpha virt. eigenvalues --    0.54261   0.54261   0.82451   0.82451   0.83532
 Alpha virt. eigenvalues --    0.94736   1.16915   1.20145   1.20145   1.43234
 Alpha virt. eigenvalues --    1.43234   1.78792   1.82228   1.82228   1.98799
 Alpha virt. eigenvalues --    1.98799   1.99622   2.01897   2.05980   2.05980
 Alpha virt. eigenvalues --    2.58457   2.58457   2.62114   2.86166   2.86166
 Alpha virt. eigenvalues --    2.97698   3.15017   3.39168   3.39168   4.06679
 Alpha virt. eigenvalues --    4.39600
          Condensed to atoms (all electrons):
               1          2          3          4          5
     1  C    4.605501   0.374805   0.374805   0.374805   0.261786
     2  H    0.374805   0.641933  -0.044423  -0.044423  -0.030884
     3  H    0.374805  -0.044423   0.641933  -0.044423  -0.030884
     4  H    0.374805  -0.044423  -0.044423   0.641933  -0.030884
     5  F    0.261786  -0.030884  -0.030884  -0.030884   9.148147
 Mulliken charges:
               1
     1  C    0.008300
     2  H    0.102993
     3  H    0.102993
     4  H    0.102993
     5  F   -0.317279
 Sum of Mulliken charges =  -0.00000
 Mulliken charges with hydrogens summed into heavy atoms:
               1
     1  C    0.317279
     5  F   -0.317279
 APT charges:
               1
     1  C    0.595303
     2  H   -0.047407
     3  H   -0.047409
     4  H   -0.047409
     5  F   -0.453076
 Sum of APT charges =   0.00000
 APT charges with hydrogens summed into heavy atoms:
               1
     1  C    0.453079
     5  F   -0.453076
 Electronic spatial extent (au):  <R**2>=             75.1378
 Charge=              0.0000 electrons
 Dipole moment (field-independent basis, Debye):
    X=             -0.0000    Y=             -0.0000    Z=             -1.7018  Tot=              1.7018
 Quadrupole moment (field-independent basis, Debye-Ang):
   XX=            -11.6844   YY=            -11.6844   ZZ=            -12.0223
   XY=              0.0000   XZ=              0.0000   YZ=              0.0000
 Traceless Quadrupole moment (field-independent basis, Debye-Ang):
   XX=              0.1126   YY=              0.1126   ZZ=             -0.2253
   XY=              0.0000   XZ=              0.0000   YZ=              0.0000
 Octapole moment (field-independent basis, Debye-Ang**2):
  XXX=              0.0000  YYY=              0.4464  ZZZ=              4.9869  XYY=              0.0000
  XXY=             -0.4464  XXZ=              1.4916  XZZ=             -0.0000  YZZ=             -0.0000
  YYZ=              1.4916  XYZ=              0.0000
 Hexadecapole moment (field-independent basis, Debye-Ang**3):
 XXXX=            -16.4766 YYYY=            -16.4766 ZZZZ=            -49.7344 XXXY=              0.0000
 XXXZ=             -0.0000 YYYX=              0.0000 YYYZ=             -0.5323 ZZZX=             -0.0000
 ZZZY=              0.0000 XXYY=             -5.4922 XXZZ=            -10.9016 YYZZ=            -10.9016
 XXYZ=              0.5323 YYXZ=             -0.0000 ZZXY=              0.0000
 N-N= 3.727103614486D+01 E-N=-4.051078640140D+02  KE= 1.387127550445D+02
 Symmetry A'   KE= 1.302850493267D+02
 Symmetry A"   KE= 8.427705717803D+00
  Exact polarizability:  13.079  -0.000  13.079  -0.000  -0.000  13.046
 Approx polarizability:  15.752  -0.000  15.752   0.000   0.000  17.244
 Calling FoFJK, ICntrl=    100127 FMM=F ISym2X=1 I1Cent= 0 IOpClX= 0 NMat=1 NMatS=1 NMatT=0.
 Full mass-weighted force constant matrix:
 Low frequencies ---  -14.6994  -14.6624   -0.0029    0.0143    0.0583   36.6823
 Low frequencies --- 1094.0621 1201.5834 1201.5840
 Diagonal vibrational polarizability:
        0.1727174       0.1727051       2.2524005
 Harmonic frequencies (cm**-1), IR intensities (KM/Mole), Raman scattering
 activities (A**4/AMU), depolarization ratios for plane and unpolarized
 incident light, reduced masses (AMU), force constants (mDyne/A),
 and normal coordinates:
                           1         2         3         4         5
                          A1         E         E         E         E
       Frequencies ---  1094.0621 1201.5833 1201.5839 1505.8443 1505.8450
    Reduced masses ---     7.5542    1.2595    1.2595    1.0504    1.0504
   Force constants ---     5.3275    1.0714    1.0714    1.4034    1.4034
    IR Intensities ---    91.8469    0.7161    0.7163    1.5290    1.5284
 Coord Atom Element:
   1     1     6         -0.00000   0.00000   0.13526   0.00000  -0.06155
   2     1     6         -0.00000  -0.13526   0.00000  -0.06155  -0.00000
   3     1     6          0.55687  -0.00000   0.00000  -0.00000  -0.00000
   1     2     1         -0.00000  -0.00000  -0.28175  -0.00000   0.72925
   2     2     1         -0.02111   0.12588  -0.00000  -0.14816  -0.00000
   3     2     1          0.41399   0.74657  -0.00000  -0.33217  -0.00000
   1     3     1          0.01828  -0.06750  -0.16485  -0.37994   0.07119
   2     3     1          0.01056   0.24278   0.06749   0.50990  -0.37993
   3     3     1          0.41398  -0.37329   0.64655   0.16610   0.28767
   1     4     1         -0.01828   0.06749  -0.16485   0.37994   0.07119
   2     4     1          0.01056   0.24278  -0.06749   0.50990   0.37994
   3     4     1          0.41398  -0.37329  -0.64655   0.16610  -0.28767
   1     5     9          0.00000  -0.00000  -0.05300   0.00000  -0.00736
   2     5     9          0.00000   0.05300  -0.00000  -0.00736  -0.00000
   3     5     9         -0.41762   0.00000  -0.00000  -0.00000   0.00000
                           6         7         8         9
                          A1        A1         E         E
       Frequencies ---  1519.2031 3026.9741 3104.0902 3104.0904
    Reduced masses ---     1.1512    1.0284    1.1068    1.1068
   Force constants ---     1.5654    5.5515    6.2834    6.2834
    IR Intensities ---     8.0463   31.8718   50.5595   50.5656
 Coord Atom Element:
   1     1     6         -0.00000   0.00000  -0.00000  -0.09490
   2     1     6          0.00000   0.00000  -0.09490   0.00000
   3     1     6         -0.11296   0.04310   0.00000   0.00000
   1     2     1          0.00000   0.00000  -0.00000  -0.02434
   2     2     1          0.21729   0.54579   0.77049  -0.00000
   3     2     1          0.53086  -0.18661  -0.25771   0.00000
   1     3     1         -0.18817  -0.47267   0.34417   0.57178
   2     3     1         -0.10865  -0.27290   0.17436   0.34417
   3     3     1          0.53085  -0.18662   0.12885   0.22318
   1     4     1          0.18817   0.47267  -0.34417   0.57178
   2     4     1         -0.10865  -0.27290   0.17436  -0.34417
   3     4     1          0.53085  -0.18662   0.12885  -0.22318
   1     5     9         -0.00000  -0.00000   0.00000   0.00057
   2     5     9          0.00000   0.00000   0.00057  -0.00000
   3     5     9         -0.01314   0.00247   0.00000  -0.00000
 Harmonic frequencies (cm**-1), IR intensities (KM/Mole), Raman scattering
 activities (A**4/AMU), depolarization ratios for plane and unpolarized
 incident light, reduced masses (AMU), force constants (mDyne/A),
 and normal coordinates:
                      1                      2                      3
                     A1                      E                      E
 Frequencies --   1094.0621              1201.5833              1201.5839
 Red. masses --      7.5542                 1.2595                 1.2595
 Frc consts  --      5.3275                 1.0714                 1.0714
 IR Inten    --     91.8469                 0.7161                 0.7163
  Atom  AN      X      Y      Z        X      Y      Z        X      Y      Z
     1   6    -0.00  -0.00   0.56     0.00  -0.14  -0.00     0.14   0.00   0.00
     2   1    -0.00  -0.02   0.41    -0.00   0.13   0.75    -0.28  -0.00  -0.00
     3   1     0.02   0.01   0.41    -0.07   0.24  -0.37    -0.16   0.07   0.65
     4   1    -0.02   0.01   0.41     0.07   0.24  -0.37    -0.16  -0.07  -0.65
     5   9     0.00   0.00  -0.42    -0.00   0.05   0.00    -0.05  -0.00  -0.00
                      4                      5                      6
                      E                      E                     A1
 Frequencies --   1505.8443              1505.8450              1519.2031
 Red. masses --      1.0504                 1.0504                 1.1512
 Frc consts  --      1.4034                 1.4034                 1.5654
 IR Inten    --      1.5290                 1.5284                 8.0463
  Atom  AN      X      Y      Z        X      Y      Z        X      Y      Z
     1   6     0.00  -0.06  -0.00    -0.06  -0.00  -0.00    -0.00   0.00  -0.11
     2   1    -0.00  -0.15  -0.33     0.73  -0.00  -0.00     0.00   0.22   0.53
     3   1    -0.38   0.51   0.17     0.07  -0.38   0.29    -0.19  -0.11   0.53
     4   1     0.38   0.51   0.17     0.07   0.38  -0.29     0.19  -0.11   0.53
     5   9     0.00  -0.01  -0.00    -0.01  -0.00   0.00    -0.00   0.00  -0.01
                      7                      8                      9
                     A1                      E                      E
 Frequencies --   3026.9741              3104.0902              3104.0904
 Red. masses --      1.0284                 1.1068                 1.1068
 Frc consts  --      5.5515                 6.2834                 6.2834
 IR Inten    --     31.8718                50.5595                50.5656
  Atom  AN      X      Y      Z        X      Y      Z        X      Y      Z
     1   6     0.00   0.00   0.04    -0.00  -0.09   0.00    -0.09   0.00   0.00
     2   1     0.00   0.55  -0.19    -0.00   0.77  -0.26    -0.02  -0.00   0.00
     3   1    -0.47  -0.27  -0.19     0.34   0.17   0.13     0.57   0.34   0.22
     4   1     0.47  -0.27  -0.19    -0.34   0.17   0.13     0.57  -0.34  -0.22
     5   9    -0.00   0.00   0.00     0.00   0.00   0.00     0.00  -0.00  -0.00

 -------------------
 - Thermochemistry -
 -------------------
 Temperature   298.150 Kelvin.  Pressure   1.00000 Atm.
 Atom     1 has atomic number  6 and mass  12.00000
 Atom     2 has atomic number  1 and mass   1.00783
 Atom     3 has atomic number  1 and mass   1.00783
 Atom     4 has atomic number  1 and mass   1.00783
 Atom     5 has atomic number  9 and mass  18.99840
 Molecular mass:    34.02188 amu.
 Principal axes and moments of inertia in atomic units:
                           1         2         3
     Eigenvalues --    11.49423  70.53554  70.53554
           X            0.00000   0.66885   0.74340
           Y            0.00000   0.74340  -0.66885
           Z            1.00000  -0.00000  -0.00000
 This molecule is a prolate symmetric top.
 Rotational symmetry number  3.
 Rotational temperatures (Kelvin)      7.53542     1.22795     1.22795
 Rotational constants (GHZ):         157.01275    25.58627    25.58627
 Zero-point vibrational energy     103257.3 (Joules/Mol)
                                   24.67909 (Kcal/Mol)
 Vibrational temperatures:   1574.11  1728.81  1728.81  2166.57  2166.58
          (Kelvin)           2185.79  4355.14  4466.09  4466.09
 
 Zero-point correction=                           0.039329 (Hartree/Particle)
 Thermal correction to Energy=                    0.042234
 Thermal correction to Enthalpy=                  0.043178
 Thermal correction to Gibbs Free Energy=         0.017907
 Sum of electronic and zero-point Energies=           -139.698964
 Sum of electronic and thermal Energies=              -139.696058
 Sum of electronic and thermal Enthalpies=            -139.695114
 Sum of electronic and thermal Free Energies=         -139.720385
 
                     E (Thermal)             CV                S
                      KCal/Mol        Cal/Mol-Kelvin    Cal/Mol-Kelvin
 Total                   26.502              6.872             53.188
 Electronic               0.000              0.000              0.000
 Translational            0.889              2.981             36.504
 Rotational               0.889              2.981             16.504
 Vibrational             24.725              0.910              0.180
                       Q            Log10(Q)             Ln(Q)
 Total Bot       0.579842D-08         -8.236690        -18.965680
 Total V=0       0.713200D+10          9.853211         22.687858
 Vib (Bot)       0.823846D-18        -18.084154        -41.640303
 Vib (V=0)       0.101332D+01          0.005748          0.013235
 Electronic      0.100000D+01          0.000000          0.000000
 Translational   0.779994D+07          6.892091         15.869627
 Rotational      0.902344D+03          2.955372          6.804996
                           ----------------------------
                           ! Normal Mode     1        !
 --------------------------                            --------------------------
 ! Name  Definition              Value          Relative Weight (%)             !
 --------------------------------------------------------------------------------
 ! R1    R(1,2)                  0.0283                  1.7                    !
 ! R2    R(1,3)                  0.0283                  1.7                    !
 ! R3    R(1,4)                  0.0283                  1.7                    !
 ! R4    R(1,5)                 -0.9745                 59.5                    !
 ! A1    A(2,1,3)               -0.069                   4.2                    !
 ! A2    A(2,1,4)               -0.069                   4.2                    !
 ! A3    A(2,1,5)                0.0684                  4.2                    !
 ! A4    A(3,1,4)               -0.069                   4.2                    !
 ! A5    A(3,1,5)                0.0684                  4.2                    !
 ! A6    A(4,1,5)                0.0684                  4.2                    !
 ! D1    D(2,1,4,3)              0.1663                 10.2                    !
 ! D2    D(2,1,5,3)              0.0                     0.0                    !
 ! D3    D(2,1,5,4)              0.0                     0.0                    !
 ! D4    D(3,1,5,4)              0.0                     0.0                    !
 --------------------------------------------------------------------------------
                           ----------------------------
                           ! Normal Mode     2        !
 --------------------------                            --------------------------
 ! Name  Definition              Value          Relative Weight (%)             !
 --------------------------------------------------------------------------------
 ! R1    R(1,2)                 -0.0059                  0.3                    !
 ! R2    R(1,3)                  0.003                   0.1                    !
 ! R3    R(1,4)                  0.003                   0.1                    !
 ! R4    R(1,5)                  0.0                     0.0                    !
 ! A1    A(2,1,3)               -0.0543                  2.7                    !
 ! A2    A(2,1,4)               -0.0543                  2.7                    !
 ! A3    A(2,1,5)               -0.4539                 22.7                    !
 ! A4    A(3,1,4)                0.1085                  5.4                    !
 ! A5    A(3,1,5)                0.227                  11.3                    !
 ! A6    A(4,1,5)                0.227                  11.3                    !
 ! D1    D(2,1,4,3)              0.0336                  1.7                    !
 ! D2    D(2,1,5,3)             -0.2076                 10.4                    !
 ! D3    D(2,1,5,4)              0.2076                 10.4                    !
 ! D4    D(3,1,5,4)              0.4151                 20.8                    !
 --------------------------------------------------------------------------------
                           ----------------------------
                           ! Normal Mode     3        !
 --------------------------                            --------------------------
 ! Name  Definition              Value          Relative Weight (%)             !
 --------------------------------------------------------------------------------
 ! R1    R(1,2)                  0.0                     0.0                    !
 ! R2    R(1,3)                 -0.0051                  0.3                    !
 ! R3    R(1,4)                  0.0051                  0.3                    !
 ! R4    R(1,5)                  0.0                     0.0                    !
 ! A1    A(2,1,3)               -0.094                   5.3                    !
 ! A2    A(2,1,4)                0.094                   5.3                    !
 ! A3    A(2,1,5)                0.0                     0.0                    !
 ! A4    A(3,1,4)                0.0                     0.0                    !
 ! A5    A(3,1,5)               -0.3931                 22.3                    !
 ! A6    A(4,1,5)                0.3931                 22.3                    !
 ! D1    D(2,1,4,3)              0.0581                  3.3                    !
 ! D2    D(2,1,5,3)             -0.3595                 20.4                    !
 ! D3    D(2,1,5,4)             -0.3595                 20.4                    !
 ! D4    D(3,1,5,4)              0.0                     0.0                    !
 --------------------------------------------------------------------------------
                           ----------------------------
                           ! Normal Mode     4        !
 --------------------------                            --------------------------
 ! Name  Definition              Value          Relative Weight (%)             !
 --------------------------------------------------------------------------------
 ! R1    R(1,2)                  0.0305                  0.9                    !
 ! R2    R(1,3)                 -0.0152                  0.5                    !
 ! R3    R(1,4)                 -0.0152                  0.5                    !
 ! R4    R(1,5)                  0.0                     0.0                    !
 ! A1    A(2,1,3)               -0.3272                  9.9                    !
 ! A2    A(2,1,4)               -0.3272                  9.9                    !
 ! A3    A(2,1,5)                0.1444                  4.4                    !
 ! A4    A(3,1,4)                0.6543                 19.9                    !
 ! A5    A(3,1,5)               -0.0722                  2.2                    !
 ! A6    A(4,1,5)               -0.0722                  2.2                    !
 ! D1    D(2,1,4,3)              0.2024                  6.1                    !
 ! D2    D(2,1,5,3)             -0.3577                 10.9                    !
 ! D3    D(2,1,5,4)              0.3577                 10.9                    !
 ! D4    D(3,1,5,4)              0.7154                 21.7                    !
 --------------------------------------------------------------------------------
                           ----------------------------
                           ! Normal Mode     5        !
 --------------------------                            --------------------------
 ! Name  Definition              Value          Relative Weight (%)             !
 --------------------------------------------------------------------------------
 ! R1    R(1,2)                  0.0                     0.0                    !
 ! R2    R(1,3)                 -0.0264                  0.9                    !
 ! R3    R(1,4)                  0.0264                  0.9                    !
 ! R4    R(1,5)                  0.0                     0.0                    !
 ! A1    A(2,1,3)                0.5667                 18.7                    !
 ! A2    A(2,1,4)               -0.5667                 18.7                    !
 ! A3    A(2,1,5)                0.0                     0.0                    !
 ! A4    A(3,1,4)                0.0                     0.0                    !
 ! A5    A(3,1,5)               -0.125                   4.1                    !
 ! A6    A(4,1,5)                0.125                   4.1                    !
 ! D1    D(2,1,4,3)             -0.3506                 11.6                    !
 ! D2    D(2,1,5,3)              0.6195                 20.5                    !
 ! D3    D(2,1,5,4)              0.6195                 20.5                    !
 ! D4    D(3,1,5,4)              0.0                     0.0                    !
 --------------------------------------------------------------------------------
                           ----------------------------
                           ! Normal Mode     6        !
 --------------------------                            --------------------------
 ! Name  Definition              Value          Relative Weight (%)             !
 --------------------------------------------------------------------------------
 ! R1    R(1,2)                 -0.0126                  0.4                    !
 ! R2    R(1,3)                 -0.0126                  0.4                    !
 ! R3    R(1,4)                 -0.0126                  0.4                    !
 ! R4    R(1,5)                  0.0998                  3.4                    !
 ! A1    A(2,1,3)                0.3309                 11.4                    !
 ! A2    A(2,1,4)                0.3309                 11.4                    !
 ! A3    A(2,1,5)               -0.328                  11.3                    !
 ! A4    A(3,1,4)                0.3309                 11.4                    !
 ! A5    A(3,1,5)               -0.328                  11.3                    !
 ! A6    A(4,1,5)               -0.328                  11.3                    !
 ! D1    D(2,1,4,3)             -0.7976                 27.4                    !
 ! D2    D(2,1,5,3)              0.0                     0.0                    !
 ! D3    D(2,1,5,4)              0.0                     0.0                    !
 ! D4    D(3,1,5,4)              0.0                     0.0                    !
 --------------------------------------------------------------------------------
                           ----------------------------
                           ! Normal Mode     7        !
 --------------------------                            --------------------------
 ! Name  Definition              Value          Relative Weight (%)             !
 --------------------------------------------------------------------------------
 ! R1    R(1,2)                  0.5913                 30.4                    !
 ! R2    R(1,3)                  0.5913                 30.4                    !
 ! R3    R(1,4)                  0.5913                 30.4                    !
 ! R4    R(1,5)                 -0.0406                  2.1                    !
 ! A1    A(2,1,3)               -0.0157                  0.8                    !
 ! A2    A(2,1,4)               -0.0157                  0.8                    !
 ! A3    A(2,1,5)                0.0155                  0.8                    !
 ! A4    A(3,1,4)               -0.0157                  0.8                    !
 ! A5    A(3,1,5)                0.0155                  0.8                    !
 ! A6    A(4,1,5)                0.0155                  0.8                    !
 ! D1    D(2,1,4,3)              0.0378                  1.9                    !
 ! D2    D(2,1,5,3)              0.0                     0.0                    !
 ! D3    D(2,1,5,4)              0.0                     0.0                    !
 ! D4    D(3,1,5,4)              0.0                     0.0                    !
 --------------------------------------------------------------------------------
                           ----------------------------
                           ! Normal Mode     8        !
 --------------------------                            --------------------------
 ! Name  Definition              Value          Relative Weight (%)             !
 --------------------------------------------------------------------------------
 ! R1    R(1,2)                  0.9016                 41.3                    !
 ! R2    R(1,3)                 -0.4508                 20.6                    !
 ! R3    R(1,4)                 -0.4508                 20.6                    !
 ! R4    R(1,5)                  0.0                     0.0                    !
 ! A1    A(2,1,3)               -0.0195                  0.9                    !
 ! A2    A(2,1,4)               -0.0195                  0.9                    !
 ! A3    A(2,1,5)               -0.0603                  2.8                    !
 ! A4    A(3,1,4)                0.039                   1.8                    !
 ! A5    A(3,1,5)                0.0302                  1.4                    !
 ! A6    A(4,1,5)                0.0302                  1.4                    !
 ! D1    D(2,1,4,3)              0.0121                  0.6                    !
 ! D2    D(2,1,5,3)             -0.0427                  2.0                    !
 ! D3    D(2,1,5,4)              0.0427                  2.0                    !
 ! D4    D(3,1,5,4)              0.0853                  3.9                    !
 --------------------------------------------------------------------------------
                           ----------------------------
                           ! Normal Mode     9        !
 --------------------------                            --------------------------
 ! Name  Definition              Value          Relative Weight (%)             !
 --------------------------------------------------------------------------------
 ! R1    R(1,2)                  0.0                     0.0                    !
 ! R2    R(1,3)                 -0.7808                 41.0                    !
 ! R3    R(1,4)                  0.7808                 41.0                    !
 ! R4    R(1,5)                  0.0                     0.0                    !
 ! A1    A(2,1,3)                0.0337                  1.8                    !
 ! A2    A(2,1,4)               -0.0337                  1.8                    !
 ! A3    A(2,1,5)                0.0                     0.0                    !
 ! A4    A(3,1,4)                0.0                     0.0                    !
 ! A5    A(3,1,5)                0.0522                  2.7                    !
 ! A6    A(4,1,5)               -0.0522                  2.7                    !
 ! D1    D(2,1,4,3)             -0.0209                  1.1                    !
 ! D2    D(2,1,5,3)              0.0739                  3.9                    !
 ! D3    D(2,1,5,4)              0.0739                  3.9                    !
 ! D4    D(3,1,5,4)              0.0                     0.0                    !
 --------------------------------------------------------------------------------
 Max01P=     11 Av01P=    8.56 Stan. Dev.=    1.94
 Max05P=      7 Av05P=    4.67 Stan. Dev.=    2.18
 Max10P=      7 Av10P=    4.00 Stan. Dev.=    1.73
 MaxNDP=     14 AvNDP=   14.00 Stan. Dev.=    0.00
 ***** Axes restored to original set *****
 -------------------------------------------------------------------
 Center     Atomic                   Forces (Hartrees/Bohr)
 Number     Number              X              Y              Z
 -------------------------------------------------------------------
      1        6          -0.000000000   -0.000000000   -0.000372031
      2        1           0.000000000   -0.000097517    0.000008793
      3        1           0.000084453    0.000048759    0.000008793
      4        1          -0.000084453    0.000048759    0.000008793
      5        9          -0.000000000   -0.000000000    0.000345651
 -------------------------------------------------------------------
 Cartesian Forces:  Max     0.000372031 RMS     0.000138237
 FormGI is forming the generalized inverse of G from B-inverse, IUseBI=4.

 GradGradGradGradGradGradGradGradGradGradGradGradGradGradGradGradGradGrad
 Berny optimization.
 GetPCM: File not found, return IValue=0.
 Optmz: redundant internal coordinate code flag= 1
 IB Matrix in FormBX:
              1            2            3            4            5
     1            1            1            1            1            2
     2            2            3            4            5            1
     3            0            0            0            0            3
     4            0            0            0            0            0
              6            7            8            9           10
     1            2            2            3            3            4
     2            1            1            1            1            1
     3            4            5            4            5            5
     4            0            0            0            0            0
             11           12           13           14
     1            2            2            2            3
     2            1            1            1            1
     3            4            5            5            5
     4            3            3            4            4
 B Matrix in FormBX:
                 1             2             3             4             5 
      1   0.000000D+00  0.815291D+00 -0.815292D+00  0.000000D+00  0.416916D+00
      2  -0.941418D+00  0.470709D+00  0.470709D+00  0.000000D+00  0.821289D-01
      3   0.337243D+00  0.337243D+00  0.337243D+00 -0.100000D+01  0.229263D+00
      4   0.000000D+00 -0.815291D+00  0.815292D+00  0.000000D+00 -0.554249D+00
      5   0.941418D+00 -0.470709D+00 -0.470709D+00  0.000000D+00  0.319996D+00
      6  -0.337243D+00 -0.337243D+00 -0.337243D+00  0.100000D+01 -0.458527D+00
      7   0.000000D+00  0.000000D+00  0.000000D+00  0.000000D+00  0.137333D+00
      8   0.000000D+00  0.000000D+00  0.000000D+00  0.000000D+00 -0.402125D+00
      9   0.000000D+00  0.000000D+00  0.000000D+00  0.000000D+00  0.229263D+00
     10   0.000000D+00  0.000000D+00  0.000000D+00  0.000000D+00  0.000000D+00
     11   0.000000D+00  0.000000D+00  0.000000D+00  0.000000D+00  0.000000D+00
     12   0.000000D+00  0.000000D+00  0.000000D+00  0.000000D+00  0.000000D+00
                 6             7             8             9            10 
      1  -0.416916D+00  0.000000D+00 -0.279584D+00  0.141016D+00 -0.141016D+00
      2   0.821286D-01 -0.162831D+00  0.319996D+00  0.814158D-01  0.814157D-01
      3   0.229263D+00 -0.454546D+00  0.229263D+00 -0.454546D+00 -0.454546D+00
      4   0.554249D+00  0.000000D+00  0.000000D+00 -0.472443D+00  0.472443D+00
      5   0.319996D+00  0.545530D+00 -0.639992D+00 -0.272765D+00 -0.272765D+00
      6  -0.458527D+00  0.454546D+00 -0.458527D+00  0.454546D+00  0.454546D+00
      7  -0.137333D+00  0.000000D+00  0.279584D+00  0.331427D+00 -0.331427D+00
      8  -0.402125D+00 -0.382699D+00  0.319996D+00  0.191350D+00  0.191349D+00
      9   0.229263D+00  0.000000D+00  0.229263D+00  0.000000D+00  0.000000D+00
     10   0.000000D+00  0.000000D+00  0.000000D+00  0.000000D+00  0.000000D+00
     11   0.000000D+00  0.000000D+00  0.000000D+00  0.000000D+00  0.000000D+00
     12   0.000000D+00  0.000000D+00  0.000000D+00  0.000000D+00  0.000000D+00
                11            12            13            14 
      1  -0.257925D+00  0.512877D+00  0.512877D+00 -0.256439D+00
      2  -0.148913D+00  0.000000D+00  0.000000D+00  0.444164D+00
      3  -0.415692D+00  0.000000D+00  0.000000D+00  0.000000D+00
      4   0.342885D+00 -0.974956D+00 -0.974956D+00  0.000000D+00
      5  -0.197965D+00  0.562891D+00 -0.562891D+00 -0.112578D+01
      6   0.110524D+01  0.000000D+00  0.000000D+00  0.000000D+00
      7  -0.849606D-01  0.205641D+00  0.205641D+00  0.000000D+00
      8   0.490520D-01 -0.118727D+00  0.118727D+00  0.237453D+00
      9  -0.273859D+00  0.000000D+00  0.000000D+00  0.000000D+00
     10   0.000000D+00  0.256439D+00  0.256438D+00  0.256438D+00
     11   0.297826D+00 -0.444164D+00  0.444165D+00  0.444165D+00
     12  -0.415692D+00  0.000000D+00  0.000000D+00  0.000000D+00
 IB Matrix in Red2BG:
              1            2            3            4            5
     1            1            1            1            1            2
     2            2            3            4            5            1
     3            0            0            0            0            3
     4            0            0            0            0            0
              6            7            8            9           10
     1            2            2            3            3            4
     2            1            1            1            1            1
     3            4            5            4            5            5
     4            0            0            0            0            0
             11           12           13           14
     1            2            2            2            3
     2            1            1            1            1
     3            4            5            5            5
     4            3            3            4            4
 B Matrix in Red2BG:
                 1             2             3             4             5 
      1   0.000000D+00  0.815291D+00 -0.815292D+00  0.000000D+00  0.416916D+00
      2  -0.941418D+00  0.470709D+00  0.470709D+00  0.000000D+00  0.821289D-01
      3   0.337243D+00  0.337243D+00  0.337243D+00 -0.100000D+01  0.229263D+00
      4   0.000000D+00 -0.815291D+00  0.815292D+00  0.000000D+00 -0.554249D+00
      5   0.941418D+00 -0.470709D+00 -0.470709D+00  0.000000D+00  0.319996D+00
      6  -0.337243D+00 -0.337243D+00 -0.337243D+00  0.100000D+01 -0.458527D+00
      7   0.000000D+00  0.000000D+00  0.000000D+00  0.000000D+00  0.137333D+00
      8   0.000000D+00  0.000000D+00  0.000000D+00  0.000000D+00 -0.402125D+00
      9   0.000000D+00  0.000000D+00  0.000000D+00  0.000000D+00  0.229263D+00
     10   0.000000D+00  0.000000D+00  0.000000D+00  0.000000D+00  0.000000D+00
     11   0.000000D+00  0.000000D+00  0.000000D+00  0.000000D+00  0.000000D+00
     12   0.000000D+00  0.000000D+00  0.000000D+00  0.000000D+00  0.000000D+00
                 6             7             8             9            10 
      1  -0.416916D+00  0.000000D+00 -0.279584D+00  0.141016D+00 -0.141016D+00
      2   0.821286D-01 -0.162831D+00  0.319996D+00  0.814158D-01  0.814157D-01
      3   0.229263D+00 -0.454546D+00  0.229263D+00 -0.454546D+00 -0.454546D+00
      4   0.554249D+00  0.000000D+00  0.000000D+00 -0.472443D+00  0.472443D+00
      5   0.319996D+00  0.545530D+00 -0.639992D+00 -0.272765D+00 -0.272765D+00
      6  -0.458527D+00  0.454546D+00 -0.458527D+00  0.454546D+00  0.454546D+00
      7  -0.137333D+00  0.000000D+00  0.279584D+00  0.331427D+00 -0.331427D+00
      8  -0.402125D+00 -0.382699D+00  0.319996D+00  0.191350D+00  0.191349D+00
      9   0.229263D+00  0.000000D+00  0.229263D+00  0.000000D+00  0.000000D+00
     10   0.000000D+00  0.000000D+00  0.000000D+00  0.000000D+00  0.000000D+00
     11   0.000000D+00  0.000000D+00  0.000000D+00  0.000000D+00  0.000000D+00
     12   0.000000D+00  0.000000D+00  0.000000D+00  0.000000D+00  0.000000D+00
                11            12            13            14 
      1  -0.257925D+00  0.512877D+00  0.512877D+00 -0.256439D+00
      2  -0.148913D+00  0.000000D+00  0.000000D+00  0.444164D+00
      3  -0.415692D+00  0.000000D+00  0.000000D+00  0.000000D+00
      4   0.342885D+00 -0.974956D+00 -0.974956D+00  0.000000D+00
      5  -0.197965D+00  0.562891D+00 -0.562891D+00 -0.112578D+01
      6   0.110524D+01  0.000000D+00  0.000000D+00  0.000000D+00
      7  -0.849606D-01  0.205641D+00  0.205641D+00  0.000000D+00
      8   0.490520D-01 -0.118727D+00  0.118727D+00  0.237453D+00
      9  -0.273859D+00  0.000000D+00  0.000000D+00  0.000000D+00
     10   0.000000D+00  0.256439D+00  0.256438D+00  0.256438D+00
     11   0.297826D+00 -0.444164D+00  0.444165D+00  0.444165D+00
     12  -0.415692D+00  0.000000D+00  0.000000D+00  0.000000D+00
 G Matrix: 
                 1             2             3             4             5 
      1   0.200000D+01 -0.329401D+00 -0.329401D+00 -0.337243D+00 -0.455885D+00
      2  -0.329401D+00  0.200000D+01 -0.329401D+00 -0.337243D+00 -0.455885D+00
      3  -0.329401D+00 -0.329401D+00  0.200000D+01 -0.337243D+00  0.447865D+00
      4  -0.337243D+00 -0.337243D+00 -0.337243D+00  0.200000D+01  0.458527D+00
      5  -0.455885D+00 -0.455885D+00  0.447865D+00  0.458527D+00  0.108609D+01
      6  -0.455885D+00  0.447865D+00 -0.455885D+00  0.458527D+00 -0.109060D+00
      7  -0.360279D+00  0.410078D+00  0.410078D+00 -0.454546D+00 -0.151438D+00
      8   0.447865D+00 -0.455885D+00 -0.455885D+00  0.458527D+00 -0.109060D+00
      9   0.410078D+00 -0.360279D+00  0.410078D+00 -0.454546D+00 -0.151438D+00
     10   0.410078D+00  0.410078D+00 -0.360279D+00 -0.454546D+00 -0.557556D+00
     11   0.559103D+00  0.559103D+00  0.000000D+00 -0.110524D+01 -0.119031D+01
     12  -0.529916D+00 -0.529916D+00  0.105983D+01  0.000000D+00  0.114814D+01
     13   0.529916D+00 -0.105983D+01  0.529916D+00  0.000000D+00  0.574072D+00
     14   0.105983D+01 -0.529916D+00 -0.529916D+00  0.000000D+00 -0.574072D+00
                 6             7             8             9            10 
      1  -0.455885D+00 -0.360279D+00  0.447865D+00  0.410078D+00  0.410078D+00
      2   0.447865D+00  0.410078D+00 -0.455885D+00 -0.360279D+00  0.410078D+00
      3  -0.455885D+00  0.410078D+00 -0.455885D+00  0.410078D+00 -0.360279D+00
      4   0.458527D+00 -0.454546D+00  0.458527D+00 -0.454546D+00 -0.454546D+00
      5  -0.109060D+00 -0.151438D+00 -0.109060D+00 -0.151438D+00 -0.557556D+00
      6   0.108609D+01 -0.151438D+00 -0.109060D+00 -0.557556D+00 -0.151438D+00
      7  -0.151438D+00  0.883800D+00 -0.557556D+00 -0.154188D-01 -0.154188D-01
      8  -0.109060D+00 -0.557556D+00  0.108609D+01 -0.151438D+00 -0.151438D+00
      9  -0.557556D+00 -0.154188D-01 -0.151438D+00  0.883800D+00 -0.154188D-01
     10  -0.151438D+00 -0.154188D-01 -0.151438D+00 -0.154188D-01  0.883800D+00
     11  -0.450931D+00  0.607587D+00 -0.450931D+00  0.607587D+00  0.858832D+00
     12  -0.574072D+00  0.352511D+00 -0.574072D+00  0.352511D+00 -0.705021D+00
     13  -0.114814D+01 -0.352511D+00  0.574072D+00  0.705021D+00 -0.352511D+00
     14  -0.574072D+00 -0.705021D+00  0.114814D+01  0.352511D+00  0.352511D+00
                11            12            13            14 
      1   0.559103D+00 -0.529916D+00  0.529916D+00  0.105983D+01
      2   0.559103D+00 -0.529916D+00 -0.105983D+01 -0.529916D+00
      3   0.000000D+00  0.105983D+01  0.529916D+00 -0.529916D+00
      4  -0.110524D+01  0.000000D+00  0.000000D+00  0.000000D+00
      5  -0.119031D+01  0.114814D+01  0.574072D+00 -0.574072D+00
      6  -0.450931D+00 -0.574072D+00 -0.114814D+01 -0.574072D+00
      7   0.607587D+00  0.352511D+00 -0.352511D+00 -0.705021D+00
      8  -0.450931D+00 -0.574072D+00  0.574072D+00  0.114814D+01
      9   0.607587D+00  0.352511D+00  0.705021D+00  0.352511D+00
     10   0.858832D+00 -0.705021D+00 -0.352511D+00  0.352511D+00
     11   0.198595D+01 -0.710298D+00 -0.355149D+00  0.355149D+00
     12  -0.710298D+00  0.184986D+01  0.924928D+00 -0.924928D+00
     13  -0.355149D+00  0.924928D+00  0.184986D+01  0.924928D+00
     14   0.355149D+00 -0.924928D+00  0.924928D+00  0.184986D+01
 Red2BG:  D1=  5.80D-01 OD1=  1.18D-15 B2RMS=  0.00D+00 IAprox=1
 Red2BG is reusing G-inverse.
 G-Inverse: 
                1             2             3             4             5 
      1  0.799319D+00
      2  0.662208D-01  0.799319D+00
      3  0.662208D-01  0.662208D-01  0.799319D+00
      4  0.674486D-01  0.674486D-01  0.674486D-01  0.800000D+00
      5  0.408178D-01  0.408178D-01 -0.208369D-01 -0.600938D-01  0.212891D+00
      6  0.653206D-01 -0.964405D-02  0.720979D-01 -0.126293D+00 -0.107999D+00
      7  0.159827D+00 -0.120990D+00 -0.131067D+00  0.911607D-01 -0.159599D+00
      8 -0.964405D-02  0.653206D-01  0.720979D-01 -0.126293D+00 -0.107999D+00
      9 -0.120990D+00  0.159827D+00 -0.131067D+00  0.911607D-01 -0.159599D+00
     10 -0.134494D+00 -0.134494D+00  0.139846D+00  0.127644D+00  0.322277D+00
     11 -0.828839D-01 -0.828839D-01 -0.607863D-01  0.223928D+00 -0.129850D+00
     12  0.743100D-01  0.743100D-01 -0.188279D+00  0.391996D-01  0.638391D-01
     13 -0.960738D-01  0.170384D+00 -0.941396D-01  0.195998D-01  0.319195D-01
     14 -0.170384D+00  0.960738D-01  0.941396D-01 -0.195998D-01 -0.319195D-01
                6             7             8             9            10 
      6  0.390157D+00
      7 -0.259245D+00  0.898958D+00
      8 -0.466803D-01  0.352380D+00  0.390157D+00
      9  0.352380D+00 -0.468921D+00 -0.259245D+00  0.898958D+00
     10 -0.326569D+00 -0.364149D+00 -0.326569D+00 -0.364149D+00  0.105629D+01
     11 -0.738279D-01  0.138432D+00 -0.738279D-01  0.138432D+00 -0.176757D-02
     12 -0.750692D-01  0.704915D-01 -0.750692D-01  0.704915D-01 -0.554328D-01
     13 -0.116478D+00 -0.129175D-01  0.414093D-01  0.834090D-01 -0.277164D-01
     14 -0.414093D-01 -0.834090D-01  0.116478D+00  0.129175D-01  0.277164D-01
               11            12            13            14 
     11  0.246074D+00
     12  0.120490D-01  0.166008D+00
     13  0.602450D-02  0.830042D-01  0.168500D+00
     14 -0.602450D-02 -0.830042D-01  0.854959D-01  0.168500D+00
 Internal  Forces:  Max     0.000345651 RMS     0.000102985
 Search for a local minimum.
 Step number   1 out of a maximum of    2
 All quantities printed in internal units (Hartrees-Bohrs-Radians)
 Second derivative matrix not updated -- analytic derivatives used.
 The second derivative matrix:
                          R1        R2        R3        R4        A1
           R1           0.33575
           R2           0.00332   0.33575
           R3           0.00332   0.00332   0.33575
           R4           0.01637   0.01637   0.01637   0.38294
           A1           0.00298   0.00298  -0.00365  -0.00930   0.02171
           A2           0.00406  -0.00399   0.00479  -0.01955  -0.00806
           A3          -0.00047  -0.00098  -0.00206   0.01411  -0.01679
           A4          -0.00399   0.00406   0.00479  -0.01955  -0.00806
           A5          -0.00098  -0.00047  -0.00206   0.01411  -0.01679
           A6          -0.00158  -0.00158  -0.00176   0.01976   0.02804
           D1          -0.00366  -0.00366  -0.00129   0.03466  -0.01677
           D2           0.00277   0.00277  -0.00704   0.00607   0.00587
           D3          -0.00373   0.00650  -0.00352   0.00303   0.00293
           D4          -0.00650   0.00373   0.00352  -0.00303  -0.00293
                          A2        A3        A4        A5        A6
           A2           0.04271
           A3          -0.02828   0.10754
           A4           0.00049   0.02956   0.04271
           A5           0.02956  -0.05156  -0.02828   0.10754
           A6          -0.03611  -0.04059  -0.03611  -0.04059   0.12498
           D1          -0.01601   0.01966  -0.01601   0.01966   0.00904
           D2          -0.00912   0.01407  -0.00912   0.01407  -0.01587
           D3          -0.01259  -0.00675   0.00347   0.02082  -0.00794
           D4          -0.00347  -0.02082   0.01259   0.00675   0.00794
                          D1        D2        D3        D4
           D1           0.03951
           D2           0.00376   0.02468
           D3           0.00188   0.01234   0.02460
           D4          -0.00188  -0.01234   0.01226   0.02460
 ITU=  0
 IAlgDg is returning  0.
 DiagDN:  BShift=  1.00D+00
 Eigenvectors of the second derivative matrix:
                           1         2         3         4         5
     Eigenvalues --     0.04507   0.05210   0.08209   0.18425   0.18547
   1         R1        -0.02235   0.03272  -0.01721   0.00870   0.00503
   2         R2        -0.02235  -0.03272  -0.01721   0.00870  -0.00503
   3         R3         0.02578  -0.00000  -0.04529   0.01562   0.00000
   4         R4         0.04283   0.00000   0.17008  -0.05438   0.00000
   5         A1         0.50547   0.00001   0.08433   0.22414   0.00000
   6         A2        -0.13440  -0.41769   0.37447  -0.19782  -0.25302
   7         A3        -0.04770  -0.08067  -0.32599  -0.31673   0.65351
   8         A4        -0.13441   0.41769   0.37446  -0.19782   0.25302
   9         A5        -0.04771   0.08067  -0.32599  -0.31672  -0.65351
  10         A6        -0.13919  -0.00000  -0.17405   0.80346   0.00001
  11         D1        -0.45405  -0.00001  -0.54984  -0.03624   0.00000
  12         D2         0.56261   0.00001  -0.30079  -0.11731  -0.00000
  13         D3         0.28129   0.56388  -0.15040  -0.05865  -0.09423
  14         D4        -0.28131   0.56387   0.15039   0.05865  -0.09422
                           6         7         8         9
     Eigenvalues --     0.33147   0.33304   0.33309   0.40418
   1         R1        -0.60855   0.70616  -0.27446  -0.23173
   2         R2        -0.60859  -0.70650  -0.27352  -0.23172
   3         R3        -0.32675   0.00062   0.91654  -0.22411
   4         R4         0.37374  -0.00007  -0.08008  -0.90564
   5         A1        -0.01839  -0.00001  -0.01552   0.02007
   6         A2        -0.04122   0.02117   0.02479   0.05664
   7         A3         0.02354  -0.00092  -0.00927  -0.03393
   8         A4        -0.04122  -0.02113   0.02482   0.05664
   9         A5         0.02354   0.00091  -0.00927  -0.03393
  10         A6         0.05288  -0.00001  -0.01525  -0.06434
  11         D1         0.07160  -0.00001  -0.01076  -0.09206
  12         D2         0.00658  -0.00002  -0.03060  -0.01742
  13         D3         0.00329  -0.02546  -0.01528  -0.00871
  14         D4        -0.00329  -0.02544   0.01532   0.00871
 Forces in eigenvector basis: 
                 1 
      1   0.464040D-05
      2   0.000000D+00
      3   0.242414D-04
      4  -0.132591D-04
      5   0.000000D+00
      6   0.280592D-03
      7   0.000000D+00
      8  -0.643323D-04
      9  -0.254613D-03
 Angle between quadratic step and forces=  13.84 degrees.
 Linear search not attempted -- first point.
 IB Matrix in FormBX:
              1            2            3            4            5
     1            1            1            1            1            2
     2            2            3            4            5            1
     3            0            0            0            0            3
     4            0            0            0            0            0
              6            7            8            9           10
     1            2            2            3            3            4
     2            1            1            1            1            1
     3            4            5            4            5            5
     4            0            0            0            0            0
             11           12           13           14
     1            2            2            2            3
     2            1            1            1            1
     3            4            5            5            5
     4            3            3            4            4
 B Matrix in FormBX:
                 1             2             3             4             5 
      1   0.000000D+00  0.815291D+00 -0.815292D+00  0.000000D+00  0.416916D+00
      2  -0.941418D+00  0.470709D+00  0.470709D+00  0.000000D+00  0.821289D-01
      3   0.337243D+00  0.337243D+00  0.337243D+00 -0.100000D+01  0.229263D+00
      4   0.000000D+00 -0.815291D+00  0.815292D+00  0.000000D+00 -0.554249D+00
      5   0.941418D+00 -0.470709D+00 -0.470709D+00  0.000000D+00  0.319996D+00
      6  -0.337243D+00 -0.337243D+00 -0.337243D+00  0.100000D+01 -0.458527D+00
      7   0.000000D+00  0.000000D+00  0.000000D+00  0.000000D+00  0.137333D+00
      8   0.000000D+00  0.000000D+00  0.000000D+00  0.000000D+00 -0.402125D+00
      9   0.000000D+00  0.000000D+00  0.000000D+00  0.000000D+00  0.229263D+00
     10   0.000000D+00  0.000000D+00  0.000000D+00  0.000000D+00  0.000000D+00
     11   0.000000D+00  0.000000D+00  0.000000D+00  0.000000D+00  0.000000D+00
     12   0.000000D+00  0.000000D+00  0.000000D+00  0.000000D+00  0.000000D+00
                 6             7             8             9            10 
      1  -0.416916D+00  0.000000D+00 -0.279584D+00  0.141016D+00 -0.141016D+00
      2   0.821286D-01 -0.162831D+00  0.319996D+00  0.814158D-01  0.814157D-01
      3   0.229263D+00 -0.454546D+00  0.229263D+00 -0.454546D+00 -0.454546D+00
      4   0.554249D+00  0.000000D+00  0.000000D+00 -0.472443D+00  0.472443D+00
      5   0.319996D+00  0.545530D+00 -0.639992D+00 -0.272765D+00 -0.272765D+00
      6  -0.458527D+00  0.454546D+00 -0.458527D+00  0.454546D+00  0.454546D+00
      7  -0.137333D+00  0.000000D+00  0.279584D+00  0.331427D+00 -0.331427D+00
      8  -0.402125D+00 -0.382699D+00  0.319996D+00  0.191350D+00  0.191349D+00
      9   0.229263D+00  0.000000D+00  0.229263D+00  0.000000D+00  0.000000D+00
     10   0.000000D+00  0.000000D+00  0.000000D+00  0.000000D+00  0.000000D+00
     11   0.000000D+00  0.000000D+00  0.000000D+00  0.000000D+00  0.000000D+00
     12   0.000000D+00  0.000000D+00  0.000000D+00  0.000000D+00  0.000000D+00
                11            12            13            14 
      1  -0.257925D+00  0.512877D+00  0.512877D+00 -0.256439D+00
      2  -0.148913D+00  0.000000D+00  0.000000D+00  0.444164D+00
      3  -0.415692D+00  0.000000D+00  0.000000D+00  0.000000D+00
      4   0.342885D+00 -0.974956D+00 -0.974956D+00  0.000000D+00
      5  -0.197965D+00  0.562891D+00 -0.562891D+00 -0.112578D+01
      6   0.110524D+01  0.000000D+00  0.000000D+00  0.000000D+00
      7  -0.849606D-01  0.205641D+00  0.205641D+00  0.000000D+00
      8   0.490520D-01 -0.118727D+00  0.118727D+00  0.237453D+00
      9  -0.273859D+00  0.000000D+00  0.000000D+00  0.000000D+00
     10   0.000000D+00  0.256439D+00  0.256438D+00  0.256438D+00
     11   0.297826D+00 -0.444164D+00  0.444165D+00  0.444165D+00
     12  -0.415692D+00  0.000000D+00  0.000000D+00  0.000000D+00
 Iteration  1 RMS(Cart)=  0.00024017 RMS(Int)=  0.00000001
 Iteration  2 RMS(Cart)=  0.00000000 RMS(Int)=  0.00000000
 Input Coordinates in SymCor: 
                 1             2             3             4             5 
      1   0.000000D+00  0.000000D+00 -0.168832D+01  0.168832D+01  0.000000D+00
      2   0.000000D+00  0.194950D+01 -0.974753D+00 -0.974752D+00  0.000000D+00
      3  -0.119040D+01 -0.188869D+01 -0.188869D+01 -0.188869D+01  0.142358D+01
 Symmetrized Coordinates in SymCor: 
                 1             2             3             4             5 
      1   0.000000D+00  0.000000D+00 -0.168832D+01  0.168832D+01  0.000000D+00
      2   0.000000D+00  0.194950D+01 -0.974752D+00 -0.974752D+00  0.000000D+00
      3  -0.119040D+01 -0.188869D+01 -0.188869D+01 -0.188869D+01  0.142358D+01
 Final Coordinates in SymCor: 
                 1             2             3             4             5 
      1   0.000000D+00  0.000000D+00 -0.168832D+01  0.168832D+01  0.000000D+00
      2   0.000000D+00  0.194950D+01 -0.974753D+00 -0.974752D+00  0.000000D+00
      3  -0.119040D+01 -0.188869D+01 -0.188869D+01 -0.188869D+01  0.142358D+01
 ClnCor:  largest displacement from symmetrization is 7.91D-09 for atom     4.
 Variable       Old X    -DE/DX   Delta X   Delta X   Delta X     New X
                                 (Linear)    (Quad)   (Total)
    R1        2.07112  -0.00009   0.00000  -0.00032  -0.00032   2.07079
    R2        2.07112  -0.00009   0.00000  -0.00032  -0.00032   2.07079
    R3        2.07112  -0.00009   0.00000  -0.00032  -0.00032   2.07079
    R4        2.61302   0.00035   0.00000   0.00096   0.00096   2.61398
    A1        1.90647  -0.00001   0.00000   0.00004   0.00004   1.90650
    A2        1.90647  -0.00002   0.00000   0.00004   0.00004   1.90650
    A3        1.91478   0.00001   0.00000  -0.00004  -0.00004   1.91475
    A4        1.90647  -0.00002   0.00000   0.00004   0.00004   1.90650
    A5        1.91478   0.00001   0.00000  -0.00004  -0.00004   1.91475
    A6        1.91478   0.00002   0.00000  -0.00004  -0.00004   1.91475
    D1       -2.08427   0.00003   0.00000  -0.00009  -0.00009  -2.08435
    D2        2.09440   0.00001   0.00000  -0.00000   0.00000   2.09440
    D3       -2.09440   0.00000   0.00000  -0.00000   0.00000  -2.09440
    D4        2.09440  -0.00000   0.00000   0.00000  -0.00000   2.09440
         Item               Value     Threshold  Converged?
 Maximum Force            0.000346     0.000450     YES
 RMS     Force            0.000103     0.000300     YES
 Maximum Displacement     0.000662     0.001800     YES
 RMS     Displacement     0.000240     0.001200     YES
 Predicted change in Energy=-2.094673D-07
 Optimization completed.
    -- Stationary point found.
                           ----------------------------
                           !   Optimized Parameters   !
                           ! (Angstroms and Degrees)  !
 --------------------------                            --------------------------
 ! Name  Definition              Value          Derivative Info.                !
 --------------------------------------------------------------------------------
 ! R1    R(1,2)                  1.096          -DE/DX =   -0.0001              !
 ! R2    R(1,3)                  1.096          -DE/DX =   -0.0001              !
 ! R3    R(1,4)                  1.096          -DE/DX =   -0.0001              !
 ! R4    R(1,5)                  1.3828         -DE/DX =    0.0003              !
 ! A1    A(2,1,3)              109.2324         -DE/DX =    0.0                 !
 ! A2    A(2,1,4)              109.2324         -DE/DX =    0.0                 !
 ! A3    A(2,1,5)              109.709          -DE/DX =    0.0                 !
 ! A4    A(3,1,4)              109.2324         -DE/DX =    0.0                 !
 ! A5    A(3,1,5)              109.709          -DE/DX =    0.0                 !
 ! A6    A(4,1,5)              109.709          -DE/DX =    0.0                 !
 ! D1    D(2,1,4,3)           -119.4197         -DE/DX =    0.0                 !
 ! D2    D(2,1,5,3)            120.0            -DE/DX =    0.0                 !
 ! D3    D(2,1,5,4)           -120.0            -DE/DX =    0.0                 !
 ! D4    D(3,1,5,4)            120.0            -DE/DX =    0.0                 !
 --------------------------------------------------------------------------------
 GradGradGradGradGradGradGradGradGradGradGradGradGradGradGradGradGradGrad

 Leave Link  103 at Sat Aug 10 16:32:38 2019, MaxMem=  4294967296 cpu:               8.2 elap:               0.7

 ----------------------------------------------------------------------

 Electric dipole moment (input orientation):
 (Debye = 10**-18 statcoulomb cm , SI units = C m)
                  (au)            (Debye)         (10**-30 SI)
   Tot        0.669551D+00      0.170183D+01      0.567669D+01
   x          0.000000D+00      0.000000D+00      0.000000D+00
   y          0.000000D+00      0.000000D+00      0.000000D+00
   z         -0.669551D+00     -0.170183D+01     -0.567669D+01

 Dipole polarizability, Alpha (input orientation).
 (esu units = cm**3 , SI units = C**2 m**2 J**-1)
 Alpha(0;0):
               (au)            (10**-24 esu)      (10**-40 SI)
   iso        0.130680D+02      0.193648D+01      0.215463D+01
   aniso      0.332715D-01      0.493032D-02      0.548572D-02
   xx         0.130791D+02      0.193812D+01      0.215645D+01
   yx         0.000000D+00      0.000000D+00      0.000000D+00
   yy         0.130791D+02      0.193813D+01      0.215646D+01
   zx         0.000000D+00      0.000000D+00      0.000000D+00
   zy        -0.408964D-04     -0.606022D-05     -0.674290D-05
   zz         0.130458D+02      0.193319D+01      0.215097D+01

 ----------------------------------------------------------------------

 Dipole orientation:
     6          0.00000000         -0.00000000          1.19009849
     1         -0.00000055         -1.94978540          1.88856772
     1         -1.68856342          0.97489317          1.88856772
     1          1.68856396          0.97489223          1.88856772
     9         -0.00000000          0.00000000         -1.42292220

 Electric dipole moment (dipole orientation):
 (Debye = 10**-18 statcoulomb cm , SI units = C m)
                  (au)            (Debye)         (10**-30 SI)
   Tot        0.669551D+00      0.170183D+01      0.567669D+01
   x          0.000000D+00      0.000000D+00      0.000000D+00
   y          0.000000D+00      0.000000D+00      0.000000D+00
   z          0.669551D+00      0.170183D+01      0.567669D+01

 Dipole polarizability, Alpha (dipole orientation).
 (esu units = cm**3 , SI units = C**2 m**2 J**-1)
 Alpha(0;0):
               (au)            (10**-24 esu)      (10**-40 SI)
   iso        0.130680D+02      0.193648D+01      0.215463D+01
   aniso      0.332715D-01      0.493032D-02      0.548572D-02
   xx         0.130791D+02      0.193812D+01      0.215645D+01
   yx         0.000000D+00      0.000000D+00      0.000000D+00
   yy         0.130791D+02      0.193813D+01      0.215646D+01
   zx         0.000000D+00      0.000000D+00      0.000000D+00
   zy        -0.408964D-04     -0.606022D-05     -0.674290D-05
   zz         0.130458D+02      0.193319D+01      0.215097D+01

 ----------------------------------------------------------------------

 Test job not archived.
 1\1\NSC-N479\Freq\RB3LYP\6-31G(d,p)\C1H3F1\X_KJEJO\10-Aug-2019\0\\# fr
 eq(hpmodes,intmodes) iop(1/33=3) b3lyp/6-31g(d,p) geom=connectivity io
 p(7/75=-1)\\name\\0,1\C,0.,0.,-0.629773\H,-0.0000002884,1.031782,-0.99
 9387\H,-0.893549279,-0.5158912498,-0.999387\H,0.8935495674,-0.51589075
 02,-0.999387\F,0.,0.,0.752978\\Version=ES64L-G16RevB.01\State=1-A1\HF=
 -139.7382923\RMSD=8.236e-09\RMSF=1.382e-04\ZeroPoint=0.0393286\Thermal
 =0.0422342\Dipole=0.,0.,-0.6695511\DipoleDeriv=0.4163378,0.,0.,0.,0.41
 6302,-0.0000024,0.,-0.0000028,0.9532688,0.0468951,0.,0.,0.,-0.1568742,
 0.0771596,0.,0.0437654,-0.0322421,-0.1059396,-0.0882391,-0.0668204,-0.
 0882384,-0.0040453,-0.0385786,-0.037907,-0.0218847,-0.0322409,-0.10593
 97,0.088239,0.0668204,0.0882383,-0.0040452,-0.0385786,0.037907,-0.0218
 846,-0.0322409,-0.2513381,0.,0.,0.,-0.2513414,-0.0000024,0.,0.0000107,
 -0.8565473\Polar=13.0791001,0.,13.0791228,0.,-0.0000409,13.0458401\Qua
 drupole=0.0837431,0.0837431,-0.1674863,0.,0.,0.\PG=C03V [C3(C1F1),3SGV
 (H1)]\NImag=0\\0.58594070,0.,0.58593789,0.,-0.00000018,0.49737510,-0.0
 5513860,0.00000007,-0.00000002,0.04784196,0.00000007,-0.29125262,0.072
 56017,-0.00000007,0.30683141,-0.00000002,0.06467629,-0.07110467,0.0000
 0002,-0.08426076,0.09063344,-0.23222383,-0.10224022,-0.06283875,0.0016
 8909,0.00152659,0.00112893,0.24208398,-0.10224034,-0.11416649,-0.03627
 992,-0.02661674,-0.01279673,-0.00807636,0.11214576,0.11258938,-0.05601
 121,-0.03233773,-0.07110455,0.00755879,0.00306050,0.00671546,0.0729719
 5,0.04213040,0.09063344,-0.23222394,0.10224015,0.06283877,0.00168908,-
 0.00152658,-0.00112893,-0.02003963,0.01407166,0.00642987,0.24208411,0.
 10224027,-0.11416638,-0.03627989,0.02661675,-0.01279671,-0.00807636,-0
 .01407167,0.00893199,0.00501586,-0.11214568,0.11258926,0.05601122,-0.0
 3233770,-0.07110455,-0.00755880,0.00306050,0.00671546,-0.00642987,0.00
 501586,0.00671546,-0.07297197,0.04213036,0.09063344,-0.06635479,0.,0.,
 0.00391839,0.,0.,0.00849095,0.00263994,-0.03094920,0.00849095,-0.00263
 993,0.03094921,0.04545391,0.,-0.06635373,-0.00000054,0.,0.01001473,0.0
 3573724,0.00263993,0.00544247,-0.01786855,-0.00263993,0.00544247,-0.01
 786853,0.,0.04545405,0.,-0.00000153,-0.28406157,0.,0.00557981,-0.03295
 968,-0.00483187,-0.00278958,-0.03295942,0.00483188,-0.00278957,-0.0329
 5942,0.,0.00000022,0.38293959\\0.,0.,0.00037203,0.,0.00009752,-0.00000
 879,-0.00008445,-0.00004876,-0.00000879,0.00008445,-0.00004876,-0.0000
 0879,0.,0.,-0.00034565\\\@


 TO ERR IS HUMAN - AND TO BLAME IT ON A COMPUTER IS EVEN MORE SO.
 Job cpu time:       0 days  0 hours  2 minutes 31.7 seconds.
 Elapsed time:       0 days  0 hours  0 minutes 11.9 seconds.
 File lengths (MBytes):  RWF=      6 Int=      0 D2E=      0 Chk=      8 Scr=      1
 Normal termination of Gaussian 16 at Sat Aug 10 16:32:38 2019.
