 Entering Gaussian System, Link 0=/software/sse/easybuild/prefix/software/Gaussian/16.B.01-avx2-nsc1-bdist/g16/g16.orig
 Input=freq-lm.wrap
 Output=freq-lm.log
 Initial command:
 /software/sse/easybuild/prefix/software/Gaussian/16.B.01-avx2-nsc1-bdist/g16/l1.exe "/scratch/local/Gau-123716.inp" -scrdir="/scratch/local/"
 Default is to use a total of  16 processors:
                               16 via shared-memory
                                1 via Linda
 Entering Link 1 = /software/sse/easybuild/prefix/software/Gaussian/16.B.01-avx2-nsc1-bdist/g16/l1.exe PID=    123726.
  
 Copyright (c) 1988-2017, Gaussian, Inc.  All Rights Reserved.
  
 This is part of the Gaussian(R) 16 program.  It is based on
 the Gaussian(R) 09 system (copyright 2009, Gaussian, Inc.),
 the Gaussian(R) 03 system (copyright 2003, Gaussian, Inc.),
 the Gaussian(R) 98 system (copyright 1998, Gaussian, Inc.),
 the Gaussian(R) 94 system (copyright 1995, Gaussian, Inc.),
 the Gaussian 92(TM) system (copyright 1992, Gaussian, Inc.),
 the Gaussian 90(TM) system (copyright 1990, Gaussian, Inc.),
 the Gaussian 88(TM) system (copyright 1988, Gaussian, Inc.),
 the Gaussian 86(TM) system (copyright 1986, Carnegie Mellon
 University), and the Gaussian 82(TM) system (copyright 1983,
 Carnegie Mellon University). Gaussian is a federally registered
 trademark of Gaussian, Inc.
  
 This software contains proprietary and confidential information,
 including trade secrets, belonging to Gaussian, Inc.
  
 This software is provided under written license and may be
 used, copied, transmitted, or stored only in accord with that
 written license.
  
 The following legend is applicable only to US Government
 contracts under FAR:
  
                    RESTRICTED RIGHTS LEGEND
  
 Use, reproduction and disclosure by the US Government is
 subject to restrictions as set forth in subparagraphs (a)
 and (c) of the Commercial Computer Software - Restricted
 Rights clause in FAR 52.227-19.
  
 Gaussian, Inc.
 340 Quinnipiac St., Bldg. 40, Wallingford CT 06492
  
  
 ---------------------------------------------------------------
 Warning -- This program may not be used in any manner that
 competes with the business of Gaussian, Inc. or will provide
 assistance to any competitor of Gaussian, Inc.  The licensee
 of this program is prohibited from giving any competitor of
 Gaussian, Inc. access to this program.  By using this program,
 the user acknowledges that Gaussian, Inc. is engaged in the
 business of creating and licensing software in the field of
 computational chemistry and represents and warrants to the
 licensee that it is not a competitor of Gaussian, Inc. and that
 it will not use this program in any manner prohibited above.
 ---------------------------------------------------------------
  

 Cite this work as:
 Gaussian 16, Revision B.01,
 M. J. Frisch, G. W. Trucks, H. B. Schlegel, G. E. Scuseria, 
 M. A. Robb, J. R. Cheeseman, G. Scalmani, V. Barone, 
 G. A. Petersson, H. Nakatsuji, X. Li, M. Caricato, A. V. Marenich, 
 J. Bloino, B. G. Janesko, R. Gomperts, B. Mennucci, H. P. Hratchian, 
 J. V. Ortiz, A. F. Izmaylov, J. L. Sonnenberg, D. Williams-Young, 
 F. Ding, F. Lipparini, F. Egidi, J. Goings, B. Peng, A. Petrone, 
 T. Henderson, D. Ranasinghe, V. G. Zakrzewski, J. Gao, N. Rega, 
 G. Zheng, W. Liang, M. Hada, M. Ehara, K. Toyota, R. Fukuda, 
 J. Hasegawa, M. Ishida, T. Nakajima, Y. Honda, O. Kitao, H. Nakai, 
 T. Vreven, K. Throssell, J. A. Montgomery, Jr., J. E. Peralta, 
 F. Ogliaro, M. J. Bearpark, J. J. Heyd, E. N. Brothers, K. N. Kudin, 
 V. N. Staroverov, T. A. Keith, R. Kobayashi, J. Normand, 
 K. Raghavachari, A. P. Rendell, J. C. Burant, S. S. Iyengar, 
 J. Tomasi, M. Cossi, J. M. Millam, M. Klene, C. Adamo, R. Cammi, 
 J. W. Ochterski, R. L. Martin, K. Morokuma, O. Farkas, 
 J. B. Foresman, and D. J. Fox, Gaussian, Inc., Wallingford CT, 2016.
 
 ******************************************
 Gaussian 16:  ES64L-G16RevB.01 20-Dec-2017
                10-Aug-2019 
 ******************************************
 %chk=freq.chk
 ----------------------------------------------------------------------
 # freq(intmodes) iop(1/33=3) b3lyp/6-31g(d,p) geom=connectivity iop(7/
 75=-1)
 ----------------------------------------------------------------------
 1/10=4,18=20,30=1,33=3,38=1,57=2/1,3;
 2/9=110,12=2,17=6,18=5,40=1/2;
 3/5=1,6=6,7=101,11=2,25=1,30=1,71=2,74=-5,140=1/1,2,3;
 4//1;
 5/5=2,38=5,98=1/2;
 8/6=4,10=90,11=11/1;
 11/6=1,8=1,9=11,15=111,16=1/1,2,10;
 10/6=1/2;
 6/7=2,8=2,9=2,10=2,28=1/1;
 7/8=21,10=1,25=1,75=-1/1,2,3,16;
 1/10=4,18=20,30=1,33=3/3;
 99//99;
 ONIOM results not found on unit 2.
 ----
 name
 ----
 TstMul:  ICh=     0
 TstMul:  Mul=     1
 TstMul:  ICh=     0
 TstMul:  Mul=     1
 Symbolic Z-matrix:
 Charge =  0 Multiplicity = 1
 C                     0.        0.        0. 
 H                     0.63045   0.63045   0.63045 
 H                    -0.63045  -0.63045   0.63045 
 H                    -0.63045   0.63045  -0.63045 
 H                     0.63045  -0.63045  -0.63045 
 
 RdStrC is calling ZToCFu for IStruc=1 NZ=     5.
                                ZToCFu                                
 ---------------------------------------------------------------------
 Center     Atomic      Atomic             Coordinates (Angstroms)
 Number     Number       Type             X           Y           Z
 ---------------------------------------------------------------------
      1          6           0        0.000000    0.000000    0.000000
      2          1           0        0.630450    0.630450    0.630450
      3          1           0       -0.630450   -0.630450    0.630450
      4          1           0       -0.630450    0.630450   -0.630450
      5          1           0        0.630450   -0.630450   -0.630450
 ---------------------------------------------------------------------
 Connectivity in DoCon:
 I=     1 IAn=  6 IBond, RBType=     2  1.00     3  1.00     4  1.00     5  1.00
 I=     2 IAn=  1 IBond, RBType=     1  1.00
 I=     3 IAn=  1 IBond, RBType=     1  1.00
 I=     4 IAn=  1 IBond, RBType=     1  1.00
 I=     5 IAn=  1 IBond, RBType=     1  1.00
 After GenITR:
 ITRead=  0  0  0  0  0
 MicOpt= -1 -1 -1 -1 -1
 List IsCon N=      5 M=      2:
 I=      1 Vals=      2      1 |      3      1 |      4      1 |      5      1 |
 I=      2 Vals=      1      1 |
 I=      3 Vals=      1      1 |
 I=      4 Vals=      1      1 |
 I=      5 Vals=      1      1 |
 Coordinate R1 contains atom 1 which is already in QM block.
 Coordinate R1 contains atom 2 which is already in QM block.
 Coordinate R2 contains atom 1 which is already in QM block.
 Coordinate R2 contains atom 3 which is already in QM block.
 Coordinate R3 contains atom 1 which is already in QM block.
 Coordinate R3 contains atom 4 which is already in QM block.
 Coordinate R4 contains atom 1 which is already in QM block.
 Coordinate R4 contains atom 5 which is already in QM block.
 Coordinate A1 contains atom 2 which is already in QM block.
 Coordinate A1 contains atom 1 which is already in QM block.
 Coordinate A1 contains atom 1 which is already in QM block.
 Coordinate A2 contains atom 2 which is already in QM block.
 Coordinate A2 contains atom 1 which is already in QM block.
 Coordinate A2 contains atom 1 which is already in QM block.
 Coordinate A3 contains atom 2 which is already in QM block.
 Coordinate A3 contains atom 1 which is already in QM block.
 Coordinate A3 contains atom 1 which is already in QM block.
 Coordinate A4 contains atom 3 which is already in QM block.
 Coordinate A4 contains atom 1 which is already in QM block.
 Coordinate A4 contains atom 1 which is already in QM block.
 Coordinate A5 contains atom 3 which is already in QM block.
 Coordinate A5 contains atom 1 which is already in QM block.
 Coordinate A5 contains atom 1 which is already in QM block.
 Coordinate A6 contains atom 4 which is already in QM block.
 Coordinate A6 contains atom 1 which is already in QM block.
 Coordinate A6 contains atom 1 which is already in QM block.
 Coordinate D1 contains atom 2 which is already in QM block.
 Coordinate D1 contains atom 1 which is already in QM block.
 Coordinate D1 contains atom 4 which is already in QM block.
 Coordinate D1 contains atom 3 which is already in QM block.
 Coordinate D2 contains atom 2 which is already in QM block.
 Coordinate D2 contains atom 1 which is already in QM block.
 Coordinate D2 contains atom 5 which is already in QM block.
 Coordinate D2 contains atom 3 which is already in QM block.
 Coordinate D3 contains atom 2 which is already in QM block.
 Coordinate D3 contains atom 1 which is already in QM block.
 Coordinate D3 contains atom 5 which is already in QM block.
 Coordinate D3 contains atom 4 which is already in QM block.
 Coordinate D4 contains atom 3 which is already in QM block.
 Coordinate D4 contains atom 1 which is already in QM block.
 Coordinate D4 contains atom 5 which is already in QM block.
 Coordinate D4 contains atom 4 which is already in QM block.
 Saved connectivity
 I=     1 IAn=  6 IBond, RBType=     2  1.00     3  1.00     4  1.00     5  1.00
 I=     2 IAn=  1 IBond, RBType=     1  1.00
 I=     3 IAn=  1 IBond, RBType=     1  1.00
 I=     4 IAn=  1 IBond, RBType=     1  1.00
 I=     5 IAn=  1 IBond, RBType=     1  1.00
 ITRead=  0  0  0  0  0
 MicOpt= -1 -1 -1 -1 -1
 NAtoms=      5 NQM=        5 NQMF=       0 NMMI=      0 NMMIF=      0
                NMic=       0 NMicF=      0.
 No MM parameters found.
 Leave Link  101 at Sat Aug 10 16:32:24 2019, MaxMem=  4294967296 cpu:               6.0 elap:               0.4

 GradGradGradGradGradGradGradGradGradGradGradGradGradGradGradGradGradGrad
 Berny optimization.
 GetPCM: File not found, return IValue=0.
 Optmz: redundant internal coordinate code flag= 1
 Initialization pass.
                           ----------------------------
                           !    Initial Parameters    !
                           ! (Angstroms and Degrees)  !
 --------------------------                            --------------------------
 ! Name  Definition              Value          Derivative Info.                !
 --------------------------------------------------------------------------------
 ! R1    R(1,2)                  1.092          calculate D2E/DX2 analytically  !
 ! R2    R(1,3)                  1.092          calculate D2E/DX2 analytically  !
 ! R3    R(1,4)                  1.092          calculate D2E/DX2 analytically  !
 ! R4    R(1,5)                  1.092          calculate D2E/DX2 analytically  !
 ! A1    A(2,1,3)              109.4712         calculate D2E/DX2 analytically  !
 ! A2    A(2,1,4)              109.4712         calculate D2E/DX2 analytically  !
 ! A3    A(2,1,5)              109.4712         calculate D2E/DX2 analytically  !
 ! A4    A(3,1,4)              109.4712         calculate D2E/DX2 analytically  !
 ! A5    A(3,1,5)              109.4712         calculate D2E/DX2 analytically  !
 ! A6    A(4,1,5)              109.4712         calculate D2E/DX2 analytically  !
 ! D1    D(2,1,4,3)           -120.0            calculate D2E/DX2 analytically  !
 ! D2    D(2,1,5,3)            120.0            calculate D2E/DX2 analytically  !
 ! D3    D(2,1,5,4)           -120.0            calculate D2E/DX2 analytically  !
 ! D4    D(3,1,5,4)            120.0            calculate D2E/DX2 analytically  !
 --------------------------------------------------------------------------------
 Maximum allowed force set to 1.00D+20.
 Trust Radius=3.00D-01 FncErr=1.00D-07 GrdErr=1.00D-07 EigMax=2.50D+02 EigMin=1.00D-04
 Number of steps in this run=      2 maximum allowed number of steps=      2.
 GradGradGradGradGradGradGradGradGradGradGradGradGradGradGradGradGradGrad

 Leave Link  103 at Sat Aug 10 16:32:24 2019, MaxMem=  4294967296 cpu:               0.5 elap:               0.2
                          Input orientation:                          
 ---------------------------------------------------------------------
 Center     Atomic      Atomic             Coordinates (Angstroms)
 Number     Number       Type             X           Y           Z
 ---------------------------------------------------------------------
      1          6           0        0.000000    0.000000    0.000000
      2          1           0        0.630450    0.630450    0.630450
      3          1           0       -0.630450   -0.630450    0.630450
      4          1           0       -0.630450    0.630450   -0.630450
      5          1           0        0.630450   -0.630450   -0.630450
 ---------------------------------------------------------------------
                    Distance matrix (angstroms):
                    1          2          3          4          5
     1  C    0.000000
     2  H    1.091971   0.000000
     3  H    1.091971   1.783182   0.000000
     4  H    1.091971   1.783182   1.783182   0.000000
     5  H    1.091971   1.783182   1.783182   1.783182   0.000000
 Stoichiometry    CH4
 Framework group  TD[O(C),4C3(H)]
 Deg. of freedom     1
 Full point group                 TD      NOp  24
 Largest Abelian subgroup         D2      NOp   4
 Largest concise Abelian subgroup D2      NOp   4
                         Standard orientation:                         
 ---------------------------------------------------------------------
 Center     Atomic      Atomic             Coordinates (Angstroms)
 Number     Number       Type             X           Y           Z
 ---------------------------------------------------------------------
      1          6           0        0.000000    0.000000    0.000000
      2          1           0        0.630450    0.630450    0.630450
      3          1           0       -0.630450   -0.630450    0.630450
      4          1           0       -0.630450    0.630450   -0.630450
      5          1           0        0.630450   -0.630450   -0.630450
 ---------------------------------------------------------------------
 Rotational constants (GHZ):         157.7032964         157.7032964         157.7032964
 Standard basis: 6-31G(d,p) (6D, 7F)
 There are    11 symmetry adapted cartesian basis functions of A   symmetry.
 There are     8 symmetry adapted cartesian basis functions of B1  symmetry.
 There are     8 symmetry adapted cartesian basis functions of B2  symmetry.
 There are     8 symmetry adapted cartesian basis functions of B3  symmetry.
 There are    11 symmetry adapted basis functions of A   symmetry.
 There are     8 symmetry adapted basis functions of B1  symmetry.
 There are     8 symmetry adapted basis functions of B2  symmetry.
 There are     8 symmetry adapted basis functions of B3  symmetry.
    35 basis functions,    56 primitive gaussians,    35 cartesian basis functions
     5 alpha electrons        5 beta electrons
       nuclear repulsion energy        13.4111331700 Hartrees.
 NAtoms=    5 NActive=    5 NUniq=    2 SFac= 4.00D+00 NAtFMM=   60 NAOKFM=F Big=F
 Integral buffers will be    131072 words long.
 Raffenetti 2 integral format.
 Two-electron integral symmetry is turned on.
 One-electron integrals computed using PRISM.
 NBasis=    35 RedAO= T EigKep=  1.79D-02  NBF=    11     8     8     8
 NBsUse=    35 1.00D-06 EigRej= -1.00D+00 NBFU=    11     8     8     8
 ExpMin= 1.61D-01 ExpMax= 3.05D+03 ExpMxC= 4.57D+02 IAcc=3 IRadAn=         5 AccDes= 0.00D+00
 Harris functional with IExCor=  402 and IRadAn=       5 diagonalized for initial guess.
 HarFok:  IExCor=  402 AccDes= 0.00D+00 IRadAn=         5 IDoV= 1 UseB2=F ITyADJ=14
 ICtDFT=  3500011 ScaDFX=  1.000000  1.000000  1.000000  1.000000
 FoFCou: FMM=F IPFlag=           0 FMFlag=      100000 FMFlg1=           0
         NFxFlg=           0 DoJE=T BraDBF=F KetDBF=T FulRan=T
         wScrn=  0.000000 ICntrl=       500 IOpCl=  0 I1Cent=   200000004 NGrid=           0
         NMat0=    1 NMatS0=      1 NMatT0=    0 NMatD0=    1 NMtDS0=    0 NMtDT0=    0
 Petite list used in FoFCou.
 Initial guess orbital symmetries:
       Occupied  (A1) (A1) (T2) (T2) (T2)
       Virtual   (A1) (T2) (T2) (T2) (T2) (T2) (T2) (T2) (T2) (T2)
                 (A1) (A1) (E) (E) (T2) (T2) (T2) (T1) (T1) (T1)
                 (T2) (T2) (T2) (E) (E) (A1) (T2) (T2) (T2) (A1)
 The electronic state of the initial guess is 1-A1.
 Keep R1 ints in memory in symmetry-blocked form, NReq=14025566.
 Requested convergence on RMS density matrix=1.00D-08 within 128 cycles.
 Requested convergence on MAX density matrix=1.00D-06.
 Requested convergence on             energy=1.00D-06.
 No special actions if energy rises.
 Integral accuracy reduced to 1.0D-05 until final iterations.
 Initial convergence to 1.0D-05 achieved.  Increase integral accuracy.
 SCF Done:  E(RB3LYP) =  -40.5240140364     A.U. after    8 cycles
            NFock=  8  Conv=0.20D-08     -V/T= 2.0111
 DoSCS=F DFT=T ScalE2(SS,OS)=  1.000000  1.000000
 Range of M.O.s used for correlation:     1    35
 NBasis=    35 NAE=     5 NBE=     5 NFC=     0 NFV=     0
 NROrb=     35 NOA=     5 NOB=     5 NVA=    30 NVB=    30
 Symmetrizing basis deriv contribution to polar:
 IMax=3 JMax=2 DiffMx= 0.00D+00
 G2DrvN: will do     6 centers at a time, making    1 passes.
 Calling FoFCou, ICntrl=  3107 FMM=F I1Cent=   0 AccDes= 0.00D+00.
 End of G2Drv F.D. properties file   721 does not exist.
 End of G2Drv F.D. properties file   722 does not exist.
 End of G2Drv F.D. properties file   788 does not exist.
          IDoAtm=11111
          Differentiating once with respect to electric field.
                with respect to dipole field.
          Differentiating once with respect to nuclear coordinates.
 Keep R1 ints in memory in symmetry-blocked form, NReq=13974115.
          There are     9 degrees of freedom in the 1st order CPHF.  IDoFFX=4 NUNeed=     9.
      9 vectors produced by pass  0 Test12= 1.67D-15 1.11D-08 XBig12= 6.24D+00 1.44D+00.
 AX will form     9 AO Fock derivatives at one time.
      9 vectors produced by pass  1 Test12= 1.67D-15 1.11D-08 XBig12= 9.94D-02 1.30D-01.
      9 vectors produced by pass  2 Test12= 1.67D-15 1.11D-08 XBig12= 4.16D-04 9.12D-03.
      9 vectors produced by pass  3 Test12= 1.67D-15 1.11D-08 XBig12= 4.29D-07 2.08D-04.
      9 vectors produced by pass  4 Test12= 1.67D-15 1.11D-08 XBig12= 1.87D-10 5.24D-06.
      4 vectors produced by pass  5 Test12= 1.67D-15 1.11D-08 XBig12= 5.88D-14 9.34D-08.
 InvSVY:  IOpt=1 It=  1 EMax= 1.55D-16
 Solved reduced A of dimension    49 with     9 vectors.
 Isotropic polarizability for W=    0.000000       12.68 Bohr**3.
 End of Minotr F.D. properties file   721 does not exist.
 End of Minotr F.D. properties file   722 does not exist.
 End of Minotr F.D. properties file   788 does not exist.

 **********************************************************************

            Population analysis using the SCF Density.

 **********************************************************************

 Orbital symmetries:
       Occupied  (A1) (A1) (T2) (T2) (T2)
       Virtual   (A1) (T2) (T2) (T2) (T2) (T2) (T2) (T2) (T2) (T2)
                 (A1) (A1) (E) (E) (T1) (T1) (T1) (T2) (T2) (T2)
                 (T2) (T2) (T2) (E) (E) (A1) (T2) (T2) (T2) (A1)
 The electronic state is 1-A1.
 Alpha  occ. eigenvalues --  -10.16707  -0.69041  -0.38831  -0.38831  -0.38831
 Alpha virt. eigenvalues --    0.11824   0.17677   0.17677   0.17677   0.52915
 Alpha virt. eigenvalues --    0.52915   0.52915   0.87437   0.87437   0.87437
 Alpha virt. eigenvalues --    0.92238   1.10031   1.36342   1.36342   2.04815
 Alpha virt. eigenvalues --    2.04815   2.04815   2.05174   2.05174   2.05174
 Alpha virt. eigenvalues --    2.62986   2.62986   2.62986   2.91127   2.91127
 Alpha virt. eigenvalues --    3.11530   3.42039   3.42039   3.42039   4.42254
          Condensed to atoms (all electrons):
               1          2          3          4          5
     1  C    4.898940   0.392875   0.392875   0.392875   0.392875
     2  H    0.392875   0.573031  -0.027839  -0.027839  -0.027839
     3  H    0.392875  -0.027839   0.573031  -0.027839  -0.027839
     4  H    0.392875  -0.027839  -0.027839   0.573031  -0.027839
     5  H    0.392875  -0.027839  -0.027839  -0.027839   0.573031
 Mulliken charges:
               1
     1  C   -0.470439
     2  H    0.117610
     3  H    0.117610
     4  H    0.117610
     5  H    0.117610
 Sum of Mulliken charges =  -0.00000
 Mulliken charges with hydrogens summed into heavy atoms:
               1
     1  C   -0.000000
 APT charges:
               1
     1  C    0.004573
     2  H   -0.001143
     3  H   -0.001143
     4  H   -0.001143
     5  H   -0.001143
 Sum of APT charges =  -0.00000
 APT charges with hydrogens summed into heavy atoms:
               1
     1  C   -0.000000
 Electronic spatial extent (au):  <R**2>=             35.4245
 Charge=             -0.0000 electrons
 Dipole moment (field-independent basis, Debye):
    X=             -0.0000    Y=             -0.0000    Z=              0.0000  Tot=              0.0000
 Quadrupole moment (field-independent basis, Debye-Ang):
   XX=             -8.2459   YY=             -8.2459   ZZ=             -8.2459
   XY=              0.0000   XZ=             -0.0000   YZ=             -0.0000
 Traceless Quadrupole moment (field-independent basis, Debye-Ang):
   XX=              0.0000   YY=             -0.0000   ZZ=             -0.0000
   XY=              0.0000   XZ=             -0.0000   YZ=             -0.0000
 Octapole moment (field-independent basis, Debye-Ang**2):
  XXX=             -0.0000  YYY=              0.0000  ZZZ=              0.0000  XYY=             -0.0000
  XXY=              0.0000  XXZ=              0.0000  XZZ=             -0.0000  YZZ=              0.0000
  YYZ=              0.0000  XYZ=              0.6580
 Hexadecapole moment (field-independent basis, Debye-Ang**3):
 XXXX=            -15.8475 YYYY=            -15.8475 ZZZZ=            -15.8475 XXXY=             -0.0000
 XXXZ=             -0.0000 YYYX=             -0.0000 YYYZ=              0.0000 ZZZX=             -0.0000
 ZZZY=             -0.0000 XXYY=             -4.8278 XXZZ=             -4.8278 YYZZ=             -4.8278
 XXYZ=             -0.0000 YYXZ=              0.0000 ZZXY=              0.0000
 N-N= 1.341113317002D+01 E-N=-1.198811657968D+02  KE= 4.007846291052D+01
 Symmetry A    KE= 3.431218215403D+01
 Symmetry B1   KE= 1.922093585495D+00
 Symmetry B2   KE= 1.922093585495D+00
 Symmetry B3   KE= 1.922093585495D+00
  Exact polarizability:  12.683   0.000  12.683   0.000   0.000  12.683
 Approx polarizability:  15.221   0.000  15.221  -0.000  -0.000  15.221
 Calling FoFJK, ICntrl=    100127 FMM=F ISym2X=1 I1Cent= 0 IOpClX= 0 NMat=1 NMatS=1 NMatT=0.
 Full mass-weighted force constant matrix:
 Low frequencies ---   -0.0009   -0.0009    0.0012   28.8260   28.8260   28.8260
 Low frequencies --- 1356.2036 1356.2036 1356.2036
 Diagonal vibrational polarizability:
        0.2744887       0.2744887       0.2744887
 Harmonic frequencies (cm**-1), IR intensities (KM/Mole), Raman scattering
 activities (A**4/AMU), depolarization ratios for plane and unpolarized
 incident light, reduced masses (AMU), force constants (mDyne/A),
 and normal coordinates:
                      1                      2                      3
                     T2                     T2                     T2
 Frequencies --   1356.2036              1356.2036              1356.2036
 Red. masses --      1.1789                 1.1789                 1.1789
 Frc consts  --      1.2775                 1.2775                 1.2775
 IR Inten    --     14.1008                14.1008                14.1008
  Atom  AN      X      Y      Z        X      Y      Z        X      Y      Z
     1   6    -0.01  -0.09  -0.09    -0.00  -0.09   0.09     0.12  -0.00  -0.00
     2   1    -0.31   0.08   0.09    -0.00   0.43  -0.43    -0.39   0.24   0.24
     3   1     0.02   0.42   0.44    -0.33   0.10  -0.09    -0.37   0.25  -0.21
     4   1     0.01   0.44   0.42     0.33   0.10  -0.09    -0.37  -0.21   0.25
     5   1     0.34   0.10   0.11     0.01   0.43  -0.43    -0.36  -0.23  -0.23
                      4                      5                      6
                      E                      E                     A1
 Frequencies --   1578.5775              1578.5775              3046.4643
 Red. masses --      1.0078                 1.0078                 1.0078
 Frc consts  --      1.4797                 1.4797                 5.5110
 IR Inten    --      0.0000                 0.0000                 0.0000
  Atom  AN      X      Y      Z        X      Y      Z        X      Y      Z
     1   6     0.00  -0.00  -0.00     0.00  -0.00   0.00     0.00   0.00   0.00
     2   1     0.41  -0.20  -0.20    -0.00  -0.35   0.35     0.29   0.29   0.29
     3   1    -0.41   0.20  -0.20     0.00   0.35   0.35    -0.29  -0.29   0.29
     4   1    -0.41  -0.20   0.20     0.00  -0.35  -0.35    -0.29   0.29  -0.29
     5   1     0.41   0.20   0.20    -0.00   0.35  -0.35     0.29  -0.29  -0.29
                      7                      8                      9
                     T2                     T2                     T2
 Frequencies --   3162.3285              3162.3285              3162.3285
 Red. masses --      1.1018                 1.1018                 1.1018
 Frc consts  --      6.4916                 6.4916                 6.4916
 IR Inten    --     25.3343                25.3343                25.3343
  Atom  AN      X      Y      Z        X      Y      Z        X      Y      Z
     1   6    -0.00  -0.06   0.07    -0.00   0.07   0.06     0.09   0.00   0.00
     2   1    -0.01  -0.02   0.00    -0.41  -0.40  -0.40    -0.28  -0.30  -0.30
     3   1     0.42   0.40  -0.40    -0.00   0.01   0.02    -0.27  -0.29   0.29
     4   1    -0.41   0.40  -0.40     0.01  -0.00   0.03    -0.28   0.29  -0.29
     5   1     0.01  -0.02   0.00     0.42  -0.41  -0.41    -0.27   0.29   0.29

 -------------------
 - Thermochemistry -
 -------------------
 Temperature   298.150 Kelvin.  Pressure   1.00000 Atm.
 Atom     1 has atomic number  6 and mass  12.00000
 Atom     2 has atomic number  1 and mass   1.00783
 Atom     3 has atomic number  1 and mass   1.00783
 Atom     4 has atomic number  1 and mass   1.00783
 Atom     5 has atomic number  1 and mass   1.00783
 Molecular mass:    16.03130 amu.
 Principal axes and moments of inertia in atomic units:
                           1         2         3
     Eigenvalues --    11.44390  11.44390  11.44390
           X            0.65799   0.75303   0.00000
           Y            0.75303  -0.65799   0.00000
           Z            0.00000   0.00000   1.00000
 This molecule is a spherical top.
 Rotational symmetry number 12.
 Rotational temperatures (Kelvin)      7.56856     7.56856     7.56856
 Rotational constants (GHZ):         157.70330   157.70330   157.70330
 Zero-point vibrational energy     118186.4 (Joules/Mol)
                                   28.24722 (Kcal/Mol)
 Vibrational temperatures:   1951.27  1951.27  1951.27  2271.22  2271.22
          (Kelvin)           4383.18  4549.89  4549.89  4549.89
 
 Zero-point correction=                           0.045015 (Hartree/Particle)
 Thermal correction to Energy=                    0.047881
 Thermal correction to Enthalpy=                  0.048825
 Thermal correction to Gibbs Free Energy=         0.027695
 Sum of electronic and zero-point Energies=            -40.478999
 Sum of electronic and thermal Energies=               -40.476133
 Sum of electronic and thermal Enthalpies=             -40.475189
 Sum of electronic and thermal Free Energies=          -40.496319
 
                     E (Thermal)             CV                S
                      KCal/Mol        Cal/Mol-Kelvin    Cal/Mol-Kelvin
 Total                   30.046              6.444             44.473
 Electronic               0.000              0.000              0.000
 Translational            0.889              2.981             34.261
 Rotational               0.889              2.981             10.130
 Vibrational             28.268              0.482              0.082
                       Q            Log10(Q)             Ln(Q)
 Total Bot       0.182549D-12        -12.738620        -29.331756
 Total V=0       0.926264D+08          7.966735         18.344085
 Vib (Bot)       0.198129D-20        -20.703052        -47.670540
 Vib (V=0)       0.100532D+01          0.002302          0.005301
 Electronic      0.100000D+01          0.000000          0.000000
 Translational   0.252294D+07          6.401907         14.740936
 Rotational      0.365196D+02          1.562526          3.597848
                           ----------------------------
                           ! Normal Mode     1        !
 --------------------------                            --------------------------
 ! Name  Definition              Value          Relative Weight (%)             !
 --------------------------------------------------------------------------------
 ! R1    R(1,2)                  0.0259                  0.7                    !
 ! R2    R(1,3)                 -0.0005                  0.0                    !
 ! R3    R(1,4)                 -0.0011                  0.0                    !
 ! R4    R(1,5)                 -0.0243                  0.7                    !
 ! A1    A(2,1,3)               -0.4124                 11.7                    !
 ! A2    A(2,1,4)               -0.4023                 11.4                    !
 ! A3    A(2,1,5)               -0.0249                  0.7                    !
 ! A4    A(3,1,4)                0.0249                  0.7                    !
 ! A5    A(3,1,5)                0.4023                 11.4                    !
 ! A6    A(4,1,5)                0.4124                 11.7                    !
 ! D1    D(2,1,4,3)              0.7362                 20.9                    !
 ! D2    D(2,1,5,3)             -0.2739                  7.8                    !
 ! D3    D(2,1,5,4)              0.2554                  7.2                    !
 ! D4    D(3,1,5,4)              0.5294                 15.0                    !
 --------------------------------------------------------------------------------
                           ----------------------------
                           ! Normal Mode     2        !
 --------------------------                            --------------------------
 ! Name  Definition              Value          Relative Weight (%)             !
 --------------------------------------------------------------------------------
 ! R1    R(1,2)                  0.0004                  0.0                    !
 ! R2    R(1,3)                 -0.0252                  0.7                    !
 ! R3    R(1,4)                  0.025                   0.7                    !
 ! R4    R(1,5)                 -0.0002                  0.0                    !
 ! A1    A(2,1,3)                0.4027                 11.7                    !
 ! A2    A(2,1,4)               -0.4127                 12.0                    !
 ! A3    A(2,1,5)               -0.0019                  0.1                    !
 ! A4    A(3,1,4)                0.0019                  0.1                    !
 ! A5    A(3,1,5)                0.4127                 12.0                    !
 ! A6    A(4,1,5)               -0.4027                 11.7                    !
 ! D1    D(2,1,4,3)             -0.2417                  7.0                    !
 ! D2    D(2,1,5,3)              0.7448                 21.7                    !
 ! D3    D(2,1,5,4)              0.7532                 21.9                    !
 ! D4    D(3,1,5,4)              0.0084                  0.2                    !
 --------------------------------------------------------------------------------
                           ----------------------------
                           ! Normal Mode     3        !
 --------------------------                            --------------------------
 ! Name  Definition              Value          Relative Weight (%)             !
 --------------------------------------------------------------------------------
 ! R1    R(1,2)                 -0.0167                  0.5                    !
 ! R2    R(1,3)                  0.0177                  0.6                    !
 ! R3    R(1,4)                  0.0178                  0.6                    !
 ! R4    R(1,5)                 -0.0188                  0.6                    !
 ! A1    A(2,1,3)               -0.0165                  0.5                    !
 ! A2    A(2,1,4)               -0.0187                  0.6                    !
 ! A3    A(2,1,5)                0.5761                 18.9                    !
 ! A4    A(3,1,4)               -0.5761                 18.9                    !
 ! A5    A(3,1,5)                0.0187                  0.6                    !
 ! A6    A(4,1,5)                0.0165                  0.5                    !
 ! D1    D(2,1,4,3)              0.3845                 12.6                    !
 ! D2    D(2,1,5,3)              0.3441                 11.3                    !
 ! D3    D(2,1,5,4)             -0.34                   11.2                    !
 ! D4    D(3,1,5,4)             -0.684                  22.5                    !
 --------------------------------------------------------------------------------
                           ----------------------------
                           ! Normal Mode     4        !
 --------------------------                            --------------------------
 ! Name  Definition              Value          Relative Weight (%)             !
 --------------------------------------------------------------------------------
 ! R1    R(1,2)                  0.0                     0.0                    !
 ! R2    R(1,3)                  0.0                     0.0                    !
 ! R3    R(1,4)                  0.0                     0.0                    !
 ! R4    R(1,5)                  0.0                     0.0                    !
 ! A1    A(2,1,3)                0.2416                  9.0                    !
 ! A2    A(2,1,4)                0.243                   9.1                    !
 ! A3    A(2,1,5)               -0.4846                 18.1                    !
 ! A4    A(3,1,4)               -0.4846                 18.1                    !
 ! A5    A(3,1,5)                0.243                   9.1                    !
 ! A6    A(4,1,5)                0.2416                  9.0                    !
 ! D1    D(2,1,4,3)             -0.1479                  5.5                    !
 ! D2    D(2,1,5,3)              0.1479                  5.5                    !
 ! D3    D(2,1,5,4)             -0.1488                  5.6                    !
 ! D4    D(3,1,5,4)             -0.2968                 11.1                    !
 --------------------------------------------------------------------------------
                           ----------------------------
                           ! Normal Mode     5        !
 --------------------------                            --------------------------
 ! Name  Definition              Value          Relative Weight (%)             !
 --------------------------------------------------------------------------------
 ! R1    R(1,2)                  0.0                     0.0                    !
 ! R2    R(1,3)                  0.0                     0.0                    !
 ! R3    R(1,4)                  0.0                     0.0                    !
 ! R4    R(1,5)                  0.0                     0.0                    !
 ! A1    A(2,1,3)               -0.4201                 17.1                    !
 ! A2    A(2,1,4)                0.4193                 17.1                    !
 ! A3    A(2,1,5)                0.0008                  0.0                    !
 ! A4    A(3,1,4)                0.0008                  0.0                    !
 ! A5    A(3,1,5)                0.4193                 17.1                    !
 ! A6    A(4,1,5)               -0.4201                 17.1                    !
 ! D1    D(2,1,4,3)              0.2573                 10.5                    !
 ! D2    D(2,1,5,3)             -0.2573                 10.5                    !
 ! D3    D(2,1,5,4)             -0.2567                 10.5                    !
 ! D4    D(3,1,5,4)              0.0005                  0.0                    !
 --------------------------------------------------------------------------------
                           ----------------------------
                           ! Normal Mode     6        !
 --------------------------                            --------------------------
 ! Name  Definition              Value          Relative Weight (%)             !
 --------------------------------------------------------------------------------
 ! R1    R(1,2)                  0.5                    25.0                    !
 ! R2    R(1,3)                  0.5                    25.0                    !
 ! R3    R(1,4)                  0.5                    25.0                    !
 ! R4    R(1,5)                  0.5                    25.0                    !
 ! A1    A(2,1,3)                0.0                     0.0                    !
 ! A2    A(2,1,4)                0.0                     0.0                    !
 ! A3    A(2,1,5)                0.0                     0.0                    !
 ! A4    A(3,1,4)                0.0                     0.0                    !
 ! A5    A(3,1,5)                0.0                     0.0                    !
 ! A6    A(4,1,5)                0.0                     0.0                    !
 ! D1    D(2,1,4,3)              0.0                     0.0                    !
 ! D2    D(2,1,5,3)              0.0                     0.0                    !
 ! D3    D(2,1,5,4)              0.0                     0.0                    !
 ! D4    D(3,1,5,4)              0.0                     0.0                    !
 --------------------------------------------------------------------------------
                           ----------------------------
                           ! Normal Mode     7        !
 --------------------------                            --------------------------
 ! Name  Definition              Value          Relative Weight (%)             !
 --------------------------------------------------------------------------------
 ! R1    R(1,2)                 -0.0165                  0.9                    !
 ! R2    R(1,3)                 -0.7795                 40.2                    !
 ! R3    R(1,4)                  0.7786                 40.2                    !
 ! R4    R(1,5)                  0.0174                  0.9                    !
 ! A1    A(2,1,3)                0.0424                  2.2                    !
 ! A2    A(2,1,4)               -0.0406                  2.1                    !
 ! A3    A(2,1,5)                0.0                     0.0                    !
 ! A4    A(3,1,4)                0.0                     0.0                    !
 ! A5    A(3,1,5)                0.0406                  2.1                    !
 ! A6    A(4,1,5)               -0.0424                  2.2                    !
 ! D1    D(2,1,4,3)             -0.0271                  1.4                    !
 ! D2    D(2,1,5,3)              0.0768                  4.0                    !
 ! D3    D(2,1,5,4)              0.0758                  3.9                    !
 ! D4    D(3,1,5,4)             -0.001                   0.1                    !
 --------------------------------------------------------------------------------
                           ----------------------------
                           ! Normal Mode     8        !
 --------------------------                            --------------------------
 ! Name  Definition              Value          Relative Weight (%)             !
 --------------------------------------------------------------------------------
 ! R1    R(1,2)                 -0.7684                 39.7                    !
 ! R2    R(1,3)                  0.0065                  0.3                    !
 ! R3    R(1,4)                 -0.0275                  1.4                    !
 ! R4    R(1,5)                  0.7894                 40.8                    !
 ! A1    A(2,1,3)                0.0406                  2.1                    !
 ! A2    A(2,1,4)                0.0424                  2.2                    !
 ! A3    A(2,1,5)               -0.0011                  0.1                    !
 ! A4    A(3,1,4)                0.0011                  0.1                    !
 ! A5    A(3,1,5)               -0.0424                  2.2                    !
 ! A6    A(4,1,5)               -0.0406                  2.1                    !
 ! D1    D(2,1,4,3)             -0.0764                  3.9                    !
 ! D2    D(2,1,5,3)              0.0231                  1.2                    !
 ! D3    D(2,1,5,4)             -0.0264                  1.4                    !
 ! D4    D(3,1,5,4)             -0.0495                  2.6                    !
 --------------------------------------------------------------------------------
                           ----------------------------
                           ! Normal Mode     9        !
 --------------------------                            --------------------------
 ! Name  Definition              Value          Relative Weight (%)             !
 --------------------------------------------------------------------------------
 ! R1    R(1,2)                 -0.5658                 22.6                    !
 ! R2    R(1,3)                  0.5506                 22.0                    !
 ! R3    R(1,4)                  0.5512                 22.0                    !
 ! R4    R(1,5)                 -0.5361                 21.4                    !
 ! A1    A(2,1,3)                0.0008                  0.0                    !
 ! A2    A(2,1,4)                0.0008                  0.0                    !
 ! A3    A(2,1,5)                0.0588                  2.3                    !
 ! A4    A(3,1,4)               -0.0588                  2.3                    !
 ! A5    A(3,1,5)               -0.0008                  0.0                    !
 ! A6    A(4,1,5)               -0.0008                  0.0                    !
 ! D1    D(2,1,4,3)              0.0345                  1.4                    !
 ! D2    D(2,1,5,3)              0.0365                  1.5                    !
 ! D3    D(2,1,5,4)             -0.0364                  1.5                    !
 ! D4    D(3,1,5,4)             -0.0729                  2.9                    !
 --------------------------------------------------------------------------------
 Max01P=     11 Av01P=    8.00 Stan. Dev.=    2.24
 Max05P=     10 Av05P=    5.56 Stan. Dev.=    2.74
 Max10P=      7 Av10P=    4.44 Stan. Dev.=    1.88
 MaxNDP=     14 AvNDP=   14.00 Stan. Dev.=    0.00
 ***** Axes restored to original set *****
 -------------------------------------------------------------------
 Center     Atomic                   Forces (Hartrees/Bohr)
 Number     Number              X              Y              Z
 -------------------------------------------------------------------
      1        6           0.000000000    0.000000000    0.000000000
      2        1          -0.000036399   -0.000036399   -0.000036399
      3        1           0.000036399    0.000036399   -0.000036399
      4        1           0.000036399   -0.000036399    0.000036399
      5        1          -0.000036399    0.000036399    0.000036399
 -------------------------------------------------------------------
 Cartesian Forces:  Max     0.000036399 RMS     0.000032557
 FormGI is forming the generalized inverse of G from B-inverse, IUseBI=4.

 GradGradGradGradGradGradGradGradGradGradGradGradGradGradGradGradGradGrad
 Berny optimization.
 GetPCM: File not found, return IValue=0.
 Optmz: redundant internal coordinate code flag= 1
 IB Matrix in FormBX:
              1            2            3            4            5
     1            1            1            1            1            2
     2            2            3            4            5            1
     3            0            0            0            0            3
     4            0            0            0            0            0
              6            7            8            9           10
     1            2            2            3            3            4
     2            1            1            1            1            1
     3            4            5            4            5            5
     4            0            0            0            0            0
             11           12           13           14
     1            2            2            2            3
     2            1            1            1            1
     3            4            5            5            5
     4            3            3            4            4
 B Matrix in FormBX:
                 1             2             3             4             5 
      1  -0.577350D+00  0.577350D+00  0.577350D+00 -0.577350D+00  0.197840D+00
      2  -0.577350D+00  0.577350D+00 -0.577350D+00  0.577350D+00  0.197840D+00
      3  -0.577350D+00 -0.577350D+00  0.577350D+00  0.577350D+00 -0.395680D+00
      4   0.577350D+00 -0.577350D+00 -0.577350D+00  0.577350D+00  0.000000D+00
      5   0.577350D+00 -0.577350D+00  0.577350D+00 -0.577350D+00  0.000000D+00
      6   0.577350D+00  0.577350D+00 -0.577350D+00 -0.577350D+00  0.791360D+00
      7   0.000000D+00  0.000000D+00  0.000000D+00  0.000000D+00 -0.197840D+00
      8   0.000000D+00  0.000000D+00  0.000000D+00  0.000000D+00 -0.197840D+00
      9   0.000000D+00  0.000000D+00  0.000000D+00  0.000000D+00 -0.395680D+00
     10   0.000000D+00  0.000000D+00  0.000000D+00  0.000000D+00  0.000000D+00
     11   0.000000D+00  0.000000D+00  0.000000D+00  0.000000D+00  0.000000D+00
     12   0.000000D+00  0.000000D+00  0.000000D+00  0.000000D+00  0.000000D+00
                 6             7             8             9            10 
      1   0.197840D+00 -0.395680D+00  0.395680D+00 -0.197840D+00 -0.197840D+00
      2  -0.395680D+00  0.197840D+00 -0.197840D+00  0.395680D+00  0.197840D+00
      3   0.197840D+00  0.197840D+00  0.197840D+00  0.197840D+00  0.395680D+00
      4   0.000000D+00  0.791360D+00 -0.791360D+00  0.000000D+00  0.000000D+00
      5   0.791360D+00  0.000000D+00  0.000000D+00 -0.791360D+00  0.000000D+00
      6   0.000000D+00  0.000000D+00  0.000000D+00  0.000000D+00 -0.791360D+00
      7  -0.197840D+00 -0.395680D+00  0.395680D+00  0.197840D+00  0.197840D+00
      8  -0.395680D+00 -0.197840D+00  0.197840D+00  0.395680D+00 -0.197840D+00
      9  -0.197840D+00 -0.197840D+00 -0.197840D+00 -0.197840D+00  0.395680D+00
     10   0.000000D+00  0.000000D+00  0.000000D+00  0.000000D+00  0.000000D+00
     11   0.000000D+00  0.000000D+00  0.000000D+00  0.000000D+00  0.000000D+00
     12   0.000000D+00  0.000000D+00  0.000000D+00  0.000000D+00  0.000000D+00
                11            12            13            14 
      1  -0.363455D+00  0.000000D+00  0.000000D+00  0.363455D+00
      2   0.000000D+00  0.363455D+00  0.363455D+00  0.000000D+00
      3   0.363455D+00 -0.363455D+00 -0.363455D+00  0.363455D+00
      4   0.484607D+00  0.484607D+00 -0.484607D+00 -0.969214D+00
      5  -0.484607D+00 -0.484607D+00 -0.969214D+00 -0.484607D+00
      6  -0.969214D+00  0.969214D+00  0.484607D+00 -0.484607D+00
      7  -0.121152D+00 -0.121152D+00  0.121152D+00  0.242304D+00
      8   0.121152D+00  0.121152D+00  0.242304D+00  0.121152D+00
      9   0.242304D+00 -0.242304D+00 -0.121152D+00  0.121152D+00
     10   0.000000D+00 -0.363455D+00  0.363455D+00  0.363455D+00
     11   0.363455D+00  0.000000D+00  0.363455D+00  0.363455D+00
     12   0.363455D+00 -0.363455D+00  0.000000D+00  0.000000D+00
 IB Matrix in Red2BG:
              1            2            3            4            5
     1            1            1            1            1            2
     2            2            3            4            5            1
     3            0            0            0            0            3
     4            0            0            0            0            0
              6            7            8            9           10
     1            2            2            3            3            4
     2            1            1            1            1            1
     3            4            5            4            5            5
     4            0            0            0            0            0
             11           12           13           14
     1            2            2            2            3
     2            1            1            1            1
     3            4            5            5            5
     4            3            3            4            4
 B Matrix in Red2BG:
                 1             2             3             4             5 
      1  -0.577350D+00  0.577350D+00  0.577350D+00 -0.577350D+00  0.197840D+00
      2  -0.577350D+00  0.577350D+00 -0.577350D+00  0.577350D+00  0.197840D+00
      3  -0.577350D+00 -0.577350D+00  0.577350D+00  0.577350D+00 -0.395680D+00
      4   0.577350D+00 -0.577350D+00 -0.577350D+00  0.577350D+00  0.000000D+00
      5   0.577350D+00 -0.577350D+00  0.577350D+00 -0.577350D+00  0.000000D+00
      6   0.577350D+00  0.577350D+00 -0.577350D+00 -0.577350D+00  0.791360D+00
      7   0.000000D+00  0.000000D+00  0.000000D+00  0.000000D+00 -0.197840D+00
      8   0.000000D+00  0.000000D+00  0.000000D+00  0.000000D+00 -0.197840D+00
      9   0.000000D+00  0.000000D+00  0.000000D+00  0.000000D+00 -0.395680D+00
     10   0.000000D+00  0.000000D+00  0.000000D+00  0.000000D+00  0.000000D+00
     11   0.000000D+00  0.000000D+00  0.000000D+00  0.000000D+00  0.000000D+00
     12   0.000000D+00  0.000000D+00  0.000000D+00  0.000000D+00  0.000000D+00
                 6             7             8             9            10 
      1   0.197840D+00 -0.395680D+00  0.395680D+00 -0.197840D+00 -0.197840D+00
      2  -0.395680D+00  0.197840D+00 -0.197840D+00  0.395680D+00  0.197840D+00
      3   0.197840D+00  0.197840D+00  0.197840D+00  0.197840D+00  0.395680D+00
      4   0.000000D+00  0.791360D+00 -0.791360D+00  0.000000D+00  0.000000D+00
      5   0.791360D+00  0.000000D+00  0.000000D+00 -0.791360D+00  0.000000D+00
      6   0.000000D+00  0.000000D+00  0.000000D+00  0.000000D+00 -0.791360D+00
      7  -0.197840D+00 -0.395680D+00  0.395680D+00  0.197840D+00  0.197840D+00
      8  -0.395680D+00 -0.197840D+00  0.197840D+00  0.395680D+00 -0.197840D+00
      9  -0.197840D+00 -0.197840D+00 -0.197840D+00 -0.197840D+00  0.395680D+00
     10   0.000000D+00  0.000000D+00  0.000000D+00  0.000000D+00  0.000000D+00
     11   0.000000D+00  0.000000D+00  0.000000D+00  0.000000D+00  0.000000D+00
     12   0.000000D+00  0.000000D+00  0.000000D+00  0.000000D+00  0.000000D+00
                11            12            13            14 
      1  -0.363455D+00  0.000000D+00  0.000000D+00  0.363455D+00
      2   0.000000D+00  0.363455D+00  0.363455D+00  0.000000D+00
      3   0.363455D+00 -0.363455D+00 -0.363455D+00  0.363455D+00
      4   0.484607D+00  0.484607D+00 -0.484607D+00 -0.969214D+00
      5  -0.484607D+00 -0.484607D+00 -0.969214D+00 -0.484607D+00
      6  -0.969214D+00  0.969214D+00  0.484607D+00 -0.484607D+00
      7  -0.121152D+00 -0.121152D+00  0.121152D+00  0.242304D+00
      8   0.121152D+00  0.121152D+00  0.242304D+00  0.121152D+00
      9   0.242304D+00 -0.242304D+00 -0.121152D+00  0.121152D+00
     10   0.000000D+00 -0.363455D+00  0.363455D+00  0.363455D+00
     11   0.363455D+00  0.000000D+00  0.363455D+00  0.363455D+00
     12   0.363455D+00 -0.363455D+00  0.000000D+00  0.000000D+00
 G Matrix: 
                 1             2             3             4             5 
      1   0.200000D+01 -0.333333D+00 -0.333333D+00 -0.333333D+00 -0.456892D+00
      2  -0.333333D+00  0.200000D+01 -0.333333D+00 -0.333333D+00 -0.456892D+00
      3  -0.333333D+00 -0.333333D+00  0.200000D+01 -0.333333D+00  0.456892D+00
      4  -0.333333D+00 -0.333333D+00 -0.333333D+00  0.200000D+01  0.456892D+00
      5  -0.456892D+00 -0.456892D+00  0.456892D+00  0.456892D+00  0.109594D+01
      6  -0.456892D+00  0.456892D+00 -0.456892D+00  0.456892D+00 -0.117422D+00
      7  -0.456892D+00  0.456892D+00  0.456892D+00 -0.456892D+00 -0.117422D+00
      8   0.456892D+00 -0.456892D+00 -0.456892D+00  0.456892D+00 -0.117422D+00
      9   0.456892D+00 -0.456892D+00  0.456892D+00 -0.456892D+00 -0.117422D+00
     10   0.456892D+00  0.456892D+00 -0.456892D+00 -0.456892D+00 -0.626251D+00
     11   0.559576D+00  0.559576D+00  0.000000D+00 -0.111915D+01 -0.119843D+01
     12  -0.559576D+00 -0.559576D+00  0.111915D+01  0.000000D+00  0.119843D+01
     13   0.559576D+00 -0.111915D+01  0.559576D+00  0.000000D+00  0.599217D+00
     14   0.111915D+01 -0.559576D+00 -0.559576D+00  0.000000D+00 -0.599217D+00
                 6             7             8             9            10 
      1  -0.456892D+00 -0.456892D+00  0.456892D+00  0.456892D+00  0.456892D+00
      2   0.456892D+00  0.456892D+00 -0.456892D+00 -0.456892D+00  0.456892D+00
      3  -0.456892D+00  0.456892D+00 -0.456892D+00  0.456892D+00 -0.456892D+00
      4   0.456892D+00 -0.456892D+00  0.456892D+00 -0.456892D+00 -0.456892D+00
      5  -0.117422D+00 -0.117422D+00 -0.117422D+00 -0.117422D+00 -0.626251D+00
      6   0.109594D+01 -0.117422D+00 -0.117422D+00 -0.626251D+00 -0.117422D+00
      7  -0.117422D+00  0.109594D+01 -0.626251D+00 -0.117422D+00 -0.117422D+00
      8  -0.117422D+00 -0.626251D+00  0.109594D+01 -0.117422D+00 -0.117422D+00
      9  -0.626251D+00 -0.117422D+00 -0.117422D+00  0.109594D+01 -0.117422D+00
     10  -0.117422D+00 -0.117422D+00 -0.117422D+00 -0.117422D+00  0.109594D+01
     11  -0.455405D+00  0.599217D+00 -0.455405D+00  0.599217D+00  0.910810D+00
     12  -0.599217D+00  0.455405D+00 -0.599217D+00  0.455405D+00 -0.910810D+00
     13  -0.119843D+01 -0.455405D+00  0.599217D+00  0.910810D+00 -0.455405D+00
     14  -0.599217D+00 -0.910810D+00  0.119843D+01  0.455405D+00  0.455405D+00
                11            12            13            14 
      1   0.559576D+00 -0.559576D+00  0.559576D+00  0.111915D+01
      2   0.559576D+00 -0.559576D+00 -0.111915D+01 -0.559576D+00
      3   0.000000D+00  0.111915D+01  0.559576D+00 -0.559576D+00
      4  -0.111915D+01  0.000000D+00  0.000000D+00  0.000000D+00
      5  -0.119843D+01  0.119843D+01  0.599217D+00 -0.599217D+00
      6  -0.455405D+00 -0.599217D+00 -0.119843D+01 -0.599217D+00
      7   0.599217D+00  0.455405D+00 -0.455405D+00 -0.910810D+00
      8  -0.455405D+00 -0.599217D+00  0.599217D+00  0.119843D+01
      9   0.599217D+00  0.455405D+00  0.910810D+00  0.455405D+00
     10   0.910810D+00 -0.910810D+00 -0.455405D+00  0.455405D+00
     11   0.202553D+01 -0.733888D+00 -0.366944D+00  0.366944D+00
     12  -0.733888D+00  0.202553D+01  0.101277D+01 -0.101277D+01
     13  -0.366944D+00  0.101277D+01  0.202553D+01  0.101277D+01
     14   0.366944D+00 -0.101277D+01  0.101277D+01  0.202553D+01
 Red2BG:  D1=  7.04D-01 OD1=  6.38D-15 B2RMS=  0.00D+00 IAprox=1
 Red2BG is reusing G-inverse.
 G-Inverse: 
                1             2             3             4             5 
      1  0.800000D+00
      2  0.666667D-01  0.800000D+00
      3  0.666667D-01  0.666667D-01  0.800000D+00
      4  0.666667D-01  0.666667D-01  0.666667D-01  0.800000D+00
      5  0.429010D-01  0.429010D-01 -0.269379D-01 -0.588642D-01  0.202027D+00
      6  0.672362D-01 -0.173513D-01  0.748274D-01 -0.124712D+00 -0.101360D+00
      7  0.131393D+00 -0.105452D+00 -0.116731D+00  0.907906D-01 -0.138307D+00
      8 -0.173513D-01  0.672362D-01  0.748274D-01 -0.124712D+00 -0.101360D+00
      9 -0.105452D+00  0.131393D+00 -0.116731D+00  0.907906D-01 -0.138307D+00
     10 -0.118726D+00 -0.118726D+00  0.110745D+00  0.126708D+00  0.277306D+00
     11 -0.830910D-01 -0.830910D-01 -0.586524D-01  0.224834D+00 -0.123292D+00
     12  0.684279D-01  0.684279D-01 -0.175957D+00  0.391016D-01  0.780416D-01
     13 -0.901038D-01  0.158532D+00 -0.879787D-01  0.195508D-01  0.390208D-01
     14 -0.158532D+00  0.901038D-01  0.879787D-01 -0.195508D-01 -0.390208D-01
                6             7             8             9            10 
      6  0.368982D+00
      7 -0.231066D+00  0.721381D+00
      8 -0.422097D-01  0.296171D+00  0.368982D+00
      9  0.296171D+00 -0.369584D+00 -0.231066D+00  0.721381D+00
     10 -0.290517D+00 -0.278595D+00 -0.290517D+00 -0.278595D+00  0.860919D+00
     11 -0.759660D-01  0.129522D+00 -0.759660D-01  0.129522D+00  0.161807D-01
     12 -0.842712D-01  0.460398D-01 -0.842712D-01  0.460398D-01 -0.157875D-02
     13 -0.132505D+00  0.118470D-01  0.482338D-01  0.341929D-01 -0.789376D-03
     14 -0.482338D-01 -0.341929D-01  0.132505D+00 -0.118470D-01  0.789376D-03
               11            12            13            14 
     11  0.244040D+00
     12  0.762976D-02  0.151968D+00
     13  0.381488D-02  0.759840D-01  0.155514D+00
     14 -0.381488D-02 -0.759840D-01  0.795295D-01  0.155514D+00
 Internal  Forces:  Max     0.000063046 RMS     0.000033699
 Search for a local minimum.
 Step number   1 out of a maximum of    2
 All quantities printed in internal units (Hartrees-Bohrs-Radians)
 Second derivative matrix not updated -- analytic derivatives used.
 The second derivative matrix:
                          R1        R2        R3        R4        A1
           R1           0.34822
           R2           0.00192   0.34822
           R3           0.00192   0.00192   0.34822
           R4           0.00192   0.00192   0.00192   0.34822
           A1           0.00190   0.00190  -0.00120  -0.00261   0.01998
           A2           0.00298  -0.00077   0.00332  -0.00553  -0.00888
           A3           0.00583  -0.00468  -0.00518   0.00403  -0.01325
           A4          -0.00077   0.00298   0.00332  -0.00553  -0.00888
           A5          -0.00468   0.00583  -0.00518   0.00403  -0.01325
           A6          -0.00527  -0.00527   0.00491   0.00562   0.02428
           D1          -0.00369  -0.00369  -0.00260   0.00998  -0.01360
           D2           0.00304   0.00304  -0.00781   0.00173   0.00825
           D3          -0.00400   0.00703  -0.00390   0.00087   0.00412
           D4          -0.00703   0.00400   0.00390  -0.00087  -0.00412
                          A2        A3        A4        A5        A6
           A2           0.03766
           A3          -0.02290   0.07358
           A4          -0.00212   0.02519   0.03766
           A5           0.02519  -0.03570  -0.02290   0.07358
           A6          -0.02895  -0.02692  -0.02895  -0.02692   0.08747
           D1          -0.01089   0.01483  -0.01089   0.01483   0.00572
           D2          -0.00947   0.00697  -0.00947   0.00697  -0.00324
           D3          -0.01438  -0.00053   0.00490   0.00750  -0.00162
           D4          -0.00490  -0.00750   0.01438   0.00053   0.00162
                          D1        D2        D3        D4
           D1           0.02999
           D2           0.00150   0.01864
           D3           0.00075   0.00932   0.01893
           D4          -0.00075  -0.00932   0.00961   0.01893
 ITU=  0
 IAlgDg is returning  0.
 DiagDN:  BShift=  1.00D+00
 Eigenvectors of the second derivative matrix:
                           1         2         3         4         5
     Eigenvalues --     0.03825   0.04309   0.06546   0.13309   0.13363
   1         R1         0.02019  -0.03224   0.00652  -0.02079  -0.02451
   2         R2         0.02019   0.03224   0.00652  -0.02079   0.02451
   3         R3        -0.02700   0.00000   0.03722   0.02114  -0.00000
   4         R4        -0.01338   0.00000  -0.05025   0.02044  -0.00000
   5         A1        -0.46546   0.00000  -0.13512  -0.28048   0.00000
   6         A2         0.11333   0.36509  -0.34119   0.26644  -0.32529
   7         A3        -0.00816   0.20111   0.37031   0.27080   0.62720
   8         A4         0.11333  -0.36509  -0.34119   0.26644   0.32529
   9         A5        -0.00816  -0.20111   0.37031   0.27080  -0.62720
  10         A6         0.25512  -0.00000   0.07687  -0.79401   0.00000
  11         D1         0.43127  -0.00000   0.58335   0.01718  -0.00000
  12         D2        -0.58007  -0.00000   0.28805  -0.01185   0.00000
  13         D3        -0.29003  -0.57029   0.14403  -0.00593   0.01432
  14         D4         0.29003  -0.57029  -0.14403   0.00593   0.01432
                           6         7         8         9
     Eigenvalues --     0.34718   0.34719   0.34746   0.35397
   1         R1         0.45603  -0.70595  -0.20287   0.50000
   2         R2         0.45603   0.70595  -0.20287   0.50000
   3         R3        -0.74313   0.00000  -0.44182   0.50000
   4         R4        -0.16893   0.00000   0.84755   0.50000
   5         A1         0.00650  -0.00000  -0.00730  -0.00000
   6         A2         0.00103  -0.00538  -0.02466  -0.00000
   7         A3         0.01560  -0.03096   0.01841   0.00000
   8         A4         0.00103   0.00538  -0.02466   0.00000
   9         A5         0.01560   0.03096   0.01841  -0.00000
  10         A6        -0.03978   0.00000   0.01980  -0.00000
  11         D1        -0.00923   0.00000   0.03914   0.00000
  12         D2         0.02708  -0.00000   0.01360  -0.00000
  13         D3         0.01354   0.02554   0.00680   0.00000
  14         D4        -0.01354   0.02554  -0.00680   0.00000
 Forces in eigenvector basis: 
                 1 
      1   0.000000D+00
      2   0.000000D+00
      3   0.000000D+00
      4   0.000000D+00
      5   0.000000D+00
      6   0.000000D+00
      7   0.000000D+00
      8   0.000000D+00
      9  -0.126091D-03
 Angle between quadratic step and forces=   0.00 degrees.
 Linear search not attempted -- first point.
 IB Matrix in FormBX:
              1            2            3            4            5
     1            1            1            1            1            2
     2            2            3            4            5            1
     3            0            0            0            0            3
     4            0            0            0            0            0
              6            7            8            9           10
     1            2            2            3            3            4
     2            1            1            1            1            1
     3            4            5            4            5            5
     4            0            0            0            0            0
             11           12           13           14
     1            2            2            2            3
     2            1            1            1            1
     3            4            5            5            5
     4            3            3            4            4
 B Matrix in FormBX:
                 1             2             3             4             5 
      1  -0.577350D+00  0.577350D+00  0.577350D+00 -0.577350D+00  0.197840D+00
      2  -0.577350D+00  0.577350D+00 -0.577350D+00  0.577350D+00  0.197840D+00
      3  -0.577350D+00 -0.577350D+00  0.577350D+00  0.577350D+00 -0.395680D+00
      4   0.577350D+00 -0.577350D+00 -0.577350D+00  0.577350D+00  0.000000D+00
      5   0.577350D+00 -0.577350D+00  0.577350D+00 -0.577350D+00  0.000000D+00
      6   0.577350D+00  0.577350D+00 -0.577350D+00 -0.577350D+00  0.791360D+00
      7   0.000000D+00  0.000000D+00  0.000000D+00  0.000000D+00 -0.197840D+00
      8   0.000000D+00  0.000000D+00  0.000000D+00  0.000000D+00 -0.197840D+00
      9   0.000000D+00  0.000000D+00  0.000000D+00  0.000000D+00 -0.395680D+00
     10   0.000000D+00  0.000000D+00  0.000000D+00  0.000000D+00  0.000000D+00
     11   0.000000D+00  0.000000D+00  0.000000D+00  0.000000D+00  0.000000D+00
     12   0.000000D+00  0.000000D+00  0.000000D+00  0.000000D+00  0.000000D+00
                 6             7             8             9            10 
      1   0.197840D+00 -0.395680D+00  0.395680D+00 -0.197840D+00 -0.197840D+00
      2  -0.395680D+00  0.197840D+00 -0.197840D+00  0.395680D+00  0.197840D+00
      3   0.197840D+00  0.197840D+00  0.197840D+00  0.197840D+00  0.395680D+00
      4   0.000000D+00  0.791360D+00 -0.791360D+00  0.000000D+00  0.000000D+00
      5   0.791360D+00  0.000000D+00  0.000000D+00 -0.791360D+00  0.000000D+00
      6   0.000000D+00  0.000000D+00  0.000000D+00  0.000000D+00 -0.791360D+00
      7  -0.197840D+00 -0.395680D+00  0.395680D+00  0.197840D+00  0.197840D+00
      8  -0.395680D+00 -0.197840D+00  0.197840D+00  0.395680D+00 -0.197840D+00
      9  -0.197840D+00 -0.197840D+00 -0.197840D+00 -0.197840D+00  0.395680D+00
     10   0.000000D+00  0.000000D+00  0.000000D+00  0.000000D+00  0.000000D+00
     11   0.000000D+00  0.000000D+00  0.000000D+00  0.000000D+00  0.000000D+00
     12   0.000000D+00  0.000000D+00  0.000000D+00  0.000000D+00  0.000000D+00
                11            12            13            14 
      1  -0.363455D+00  0.000000D+00  0.000000D+00  0.363455D+00
      2   0.000000D+00  0.363455D+00  0.363455D+00  0.000000D+00
      3   0.363455D+00 -0.363455D+00 -0.363455D+00  0.363455D+00
      4   0.484607D+00  0.484607D+00 -0.484607D+00 -0.969214D+00
      5  -0.484607D+00 -0.484607D+00 -0.969214D+00 -0.484607D+00
      6  -0.969214D+00  0.969214D+00  0.484607D+00 -0.484607D+00
      7  -0.121152D+00 -0.121152D+00  0.121152D+00  0.242304D+00
      8   0.121152D+00  0.121152D+00  0.242304D+00  0.121152D+00
      9   0.242304D+00 -0.242304D+00 -0.121152D+00  0.121152D+00
     10   0.000000D+00 -0.363455D+00  0.363455D+00  0.363455D+00
     11   0.363455D+00  0.000000D+00  0.363455D+00  0.363455D+00
     12   0.363455D+00 -0.363455D+00  0.000000D+00  0.000000D+00
 Iteration  1 RMS(Cart)=  0.00009520 RMS(Int)=  0.00000000
 Iteration  2 RMS(Cart)=  0.00000000 RMS(Int)=  0.00000000
 Input Coordinates in SymCor: 
                 1             2             3             4             5 
      1   0.000000D+00  0.119128D+01 -0.119128D+01 -0.119128D+01  0.119128D+01
      2   0.000000D+00  0.119128D+01 -0.119128D+01  0.119128D+01 -0.119128D+01
      3   0.000000D+00  0.119128D+01  0.119128D+01 -0.119128D+01 -0.119128D+01
 Symmetrized Coordinates in SymCor: 
                 1             2             3             4             5 
      1   0.000000D+00  0.119128D+01 -0.119128D+01 -0.119128D+01  0.119128D+01
      2   0.000000D+00  0.119128D+01 -0.119128D+01  0.119128D+01 -0.119128D+01
      3   0.000000D+00  0.119128D+01  0.119128D+01 -0.119128D+01 -0.119128D+01
 Final Coordinates in SymCor: 
                 1             2             3             4             5 
      1   0.000000D+00  0.119128D+01 -0.119128D+01 -0.119128D+01  0.119128D+01
      2   0.000000D+00  0.119128D+01 -0.119128D+01  0.119128D+01 -0.119128D+01
      3   0.000000D+00  0.119128D+01  0.119128D+01 -0.119128D+01 -0.119128D+01
 ClnCor:  largest displacement from symmetrization is 3.14D-13 for atom     3.
 Variable       Old X    -DE/DX   Delta X   Delta X   Delta X     New X
                                 (Linear)    (Quad)   (Total)
    R1        2.06353  -0.00006   0.00000  -0.00018  -0.00018   2.06335
    R2        2.06353  -0.00006   0.00000  -0.00018  -0.00018   2.06335
    R3        2.06353  -0.00006   0.00000  -0.00018  -0.00018   2.06335
    R4        2.06353  -0.00006   0.00000  -0.00018  -0.00018   2.06335
    A1        1.91063  -0.00000   0.00000  -0.00000   0.00000   1.91063
    A2        1.91063   0.00000   0.00000  -0.00000   0.00000   1.91063
    A3        1.91063  -0.00000   0.00000   0.00000   0.00000   1.91063
    A4        1.91063  -0.00000   0.00000   0.00000   0.00000   1.91063
    A5        1.91063   0.00000   0.00000  -0.00000   0.00000   1.91063
    A6        1.91063   0.00000   0.00000  -0.00000   0.00000   1.91063
    D1       -2.09440   0.00000   0.00000   0.00000   0.00000  -2.09440
    D2        2.09440  -0.00000   0.00000  -0.00000   0.00000   2.09440
    D3       -2.09440  -0.00000   0.00000   0.00000   0.00000  -2.09440
    D4        2.09440  -0.00000   0.00000   0.00000   0.00000   2.09440
         Item               Value     Threshold  Converged?
 Maximum Force            0.000063     0.000450     YES
 RMS     Force            0.000034     0.000300     YES
 Maximum Displacement     0.000103     0.001800     YES
 RMS     Displacement     0.000095     0.001200     YES
 Predicted change in Energy=-2.245800D-08
 Optimization completed.
    -- Stationary point found.
                           ----------------------------
                           !   Optimized Parameters   !
                           ! (Angstroms and Degrees)  !
 --------------------------                            --------------------------
 ! Name  Definition              Value          Derivative Info.                !
 --------------------------------------------------------------------------------
 ! R1    R(1,2)                  1.092          -DE/DX =   -0.0001              !
 ! R2    R(1,3)                  1.092          -DE/DX =   -0.0001              !
 ! R3    R(1,4)                  1.092          -DE/DX =   -0.0001              !
 ! R4    R(1,5)                  1.092          -DE/DX =   -0.0001              !
 ! A1    A(2,1,3)              109.4712         -DE/DX =    0.0                 !
 ! A2    A(2,1,4)              109.4712         -DE/DX =    0.0                 !
 ! A3    A(2,1,5)              109.4712         -DE/DX =    0.0                 !
 ! A4    A(3,1,4)              109.4712         -DE/DX =    0.0                 !
 ! A5    A(3,1,5)              109.4712         -DE/DX =    0.0                 !
 ! A6    A(4,1,5)              109.4712         -DE/DX =    0.0                 !
 ! D1    D(2,1,4,3)           -120.0            -DE/DX =    0.0                 !
 ! D2    D(2,1,5,3)            120.0            -DE/DX =    0.0                 !
 ! D3    D(2,1,5,4)           -120.0            -DE/DX =    0.0                 !
 ! D4    D(3,1,5,4)            120.0            -DE/DX =    0.0                 !
 --------------------------------------------------------------------------------
 GradGradGradGradGradGradGradGradGradGradGradGradGradGradGradGradGradGrad

 Leave Link  103 at Sat Aug 10 16:32:28 2019, MaxMem=  4294967296 cpu:               1.0 elap:               0.1
 Dipole is zero, so no output in dipole orientation.

 ----------------------------------------------------------------------

 Electric dipole moment (input orientation):
 (Debye = 10**-18 statcoulomb cm , SI units = C m)
                  (au)            (Debye)         (10**-30 SI)
   Tot        0.000000D+00      0.000000D+00      0.000000D+00
   x          0.000000D+00      0.000000D+00      0.000000D+00
   y          0.000000D+00      0.000000D+00      0.000000D+00
   z          0.000000D+00      0.000000D+00      0.000000D+00

 Dipole polarizability, Alpha (input orientation).
 (esu units = cm**3 , SI units = C**2 m**2 J**-1)
 Alpha(0;0):
               (au)            (10**-24 esu)      (10**-40 SI)
   iso        0.126826D+02      0.187937D+01      0.209108D+01
   aniso      0.000000D+00      0.000000D+00      0.000000D+00
   xx         0.126826D+02      0.187937D+01      0.209108D+01
   yx         0.000000D+00      0.000000D+00      0.000000D+00
   yy         0.126826D+02      0.187937D+01      0.209108D+01
   zx         0.000000D+00      0.000000D+00      0.000000D+00
   zy         0.000000D+00      0.000000D+00      0.000000D+00
   zz         0.126826D+02      0.187937D+01      0.209108D+01

 ----------------------------------------------------------------------

 Test job not archived.
 1\1\NSC-N505\Freq\RB3LYP\6-31G(d,p)\C1H4\X_KJEJO\10-Aug-2019\0\\# freq
 (intmodes) iop(1/33=3) b3lyp/6-31g(d,p) geom=connectivity iop(7/75=-1)
 \\name\\0,1\C,0.,0.,0.\H,0.63045,0.63045,0.63045\H,-0.63045,-0.63045,0
 .63045\H,-0.63045,0.63045,-0.63045\H,0.63045,-0.63045,-0.63045\\Versio
 n=ES64L-G16RevB.01\State=1-A1\HF=-40.524014\RMSD=1.984e-09\RMSF=3.256e
 -05\ZeroPoint=0.0450148\Thermal=0.0478811\Dipole=0.,0.,0.\DipoleDeriv=
 0.0045726,0.,0.,0.,0.0045726,0.,0.,0.,0.0045726,-0.0011432,-0.0713799,
 -0.0713799,-0.0713799,-0.0011432,-0.0713799,-0.0713799,-0.0713799,-0.0
 011432,-0.0011432,-0.0713799,0.0713799,-0.0713799,-0.0011432,0.0713799
 ,0.0713799,0.0713799,-0.0011432,-0.0011432,0.0713799,-0.0713799,0.0713
 799,-0.0011432,0.0713799,-0.0713799,0.0713799,-0.0011432,-0.0011432,0.
 0713799,0.0713799,0.0713799,-0.0011432,-0.0713799,0.0713799,-0.0713799
 ,-0.0011432\Polar=12.6826121,0.,12.6826121,0.,0.,12.6826121\Quadrupole
 =0.,0.,0.,0.,0.,0.\PG=TD [O(C1),4C3(H1)]\NImag=0\\0.55501358,0.,0.5550
 1358,0.,0.,0.55501358,-0.13875340,-0.09194406,-0.09194406,0.14658200,-
 0.09194406,-0.13875340,-0.09194406,0.10081969,0.14658200,-0.09194406,-
 0.09194406,-0.13875340,0.10081969,0.10081969,0.14658200,-0.13875340,-0
 .09194406,0.09194406,-0.01064938,-0.00887563,0.01169242,0.14658200,-0.
 09194406,-0.13875340,0.09194406,-0.00887563,-0.01064938,0.01169242,0.1
 0081969,0.14658200,0.09194406,0.09194406,-0.13875340,-0.01169242,-0.01
 169242,0.01347015,-0.10081969,-0.10081969,0.14658200,-0.13875340,0.091
 94406,-0.09194406,-0.01064938,0.01169242,-0.00887563,0.01347015,-0.011
 69242,0.01169242,0.14658200,0.09194406,-0.13875340,0.09194406,-0.01169
 242,0.01347015,-0.01169242,0.01169242,-0.01064938,0.00887563,-0.100819
 69,0.14658200,-0.09194406,0.09194406,-0.13875340,-0.00887563,0.0116924
 2,-0.01064938,-0.01169242,0.00887563,-0.01064938,0.10081969,-0.1008196
 9,0.14658200,-0.13875340,0.09194406,0.09194406,0.01347015,-0.01169242,
 -0.01169242,-0.01064938,0.01169242,0.00887563,-0.01064938,0.00887563,0
 .01169242,0.14658200,0.09194406,-0.13875340,-0.09194406,0.01169242,-0.
 01064938,-0.00887563,-0.01169242,0.01347015,0.01169242,0.00887563,-0.0
 1064938,-0.01169242,-0.10081969,0.14658200,0.09194406,-0.09194406,-0.1
 3875340,0.01169242,-0.00887563,-0.01064938,0.00887563,-0.01169242,-0.0
 1064938,-0.01169242,0.01169242,0.01347015,-0.10081969,0.10081969,0.146
 58200\\0.,0.,0.,0.00003640,0.00003640,0.00003640,-0.00003640,-0.000036
 40,0.00003640,-0.00003640,0.00003640,-0.00003640,0.00003640,-0.0000364
 0,-0.00003640\\\@


 We find comfort among those who agree with us -- growth among those who don't.
 -- Frank A. Clark
 Job cpu time:       0 days  0 hours  0 minutes 45.4 seconds.
 Elapsed time:       0 days  0 hours  0 minutes  4.1 seconds.
 File lengths (MBytes):  RWF=      6 Int=      0 D2E=      0 Chk=      8 Scr=      1
 Normal termination of Gaussian 16 at Sat Aug 10 16:32:29 2019.
