 Entering Gaussian System, Link 0=/software/sse/easybuild/prefix/software/Gaussian/16.B.01-avx2-nsc1-bdist/g16/g16.orig
 Input=freq-lm.wrap
 Output=freq-lm.log
 Initial command:
 /software/sse/easybuild/prefix/software/Gaussian/16.B.01-avx2-nsc1-bdist/g16/l1.exe "/scratch/local/Gau-320487.inp" -scrdir="/scratch/local/"
 Default is to use a total of  16 processors:
                               16 via shared-memory
                                1 via Linda
 Entering Link 1 = /software/sse/easybuild/prefix/software/Gaussian/16.B.01-avx2-nsc1-bdist/g16/l1.exe PID=    320497.
  
 Copyright (c) 1988-2017, Gaussian, Inc.  All Rights Reserved.
  
 This is part of the Gaussian(R) 16 program.  It is based on
 the Gaussian(R) 09 system (copyright 2009, Gaussian, Inc.),
 the Gaussian(R) 03 system (copyright 2003, Gaussian, Inc.),
 the Gaussian(R) 98 system (copyright 1998, Gaussian, Inc.),
 the Gaussian(R) 94 system (copyright 1995, Gaussian, Inc.),
 the Gaussian 92(TM) system (copyright 1992, Gaussian, Inc.),
 the Gaussian 90(TM) system (copyright 1990, Gaussian, Inc.),
 the Gaussian 88(TM) system (copyright 1988, Gaussian, Inc.),
 the Gaussian 86(TM) system (copyright 1986, Carnegie Mellon
 University), and the Gaussian 82(TM) system (copyright 1983,
 Carnegie Mellon University). Gaussian is a federally registered
 trademark of Gaussian, Inc.
  
 This software contains proprietary and confidential information,
 including trade secrets, belonging to Gaussian, Inc.
  
 This software is provided under written license and may be
 used, copied, transmitted, or stored only in accord with that
 written license.
  
 The following legend is applicable only to US Government
 contracts under FAR:
  
                    RESTRICTED RIGHTS LEGEND
  
 Use, reproduction and disclosure by the US Government is
 subject to restrictions as set forth in subparagraphs (a)
 and (c) of the Commercial Computer Software - Restricted
 Rights clause in FAR 52.227-19.
  
 Gaussian, Inc.
 340 Quinnipiac St., Bldg. 40, Wallingford CT 06492
  
  
 ---------------------------------------------------------------
 Warning -- This program may not be used in any manner that
 competes with the business of Gaussian, Inc. or will provide
 assistance to any competitor of Gaussian, Inc.  The licensee
 of this program is prohibited from giving any competitor of
 Gaussian, Inc. access to this program.  By using this program,
 the user acknowledges that Gaussian, Inc. is engaged in the
 business of creating and licensing software in the field of
 computational chemistry and represents and warrants to the
 licensee that it is not a competitor of Gaussian, Inc. and that
 it will not use this program in any manner prohibited above.
 ---------------------------------------------------------------
  

 Cite this work as:
 Gaussian 16, Revision B.01,
 M. J. Frisch, G. W. Trucks, H. B. Schlegel, G. E. Scuseria, 
 M. A. Robb, J. R. Cheeseman, G. Scalmani, V. Barone, 
 G. A. Petersson, H. Nakatsuji, X. Li, M. Caricato, A. V. Marenich, 
 J. Bloino, B. G. Janesko, R. Gomperts, B. Mennucci, H. P. Hratchian, 
 J. V. Ortiz, A. F. Izmaylov, J. L. Sonnenberg, D. Williams-Young, 
 F. Ding, F. Lipparini, F. Egidi, J. Goings, B. Peng, A. Petrone, 
 T. Henderson, D. Ranasinghe, V. G. Zakrzewski, J. Gao, N. Rega, 
 G. Zheng, W. Liang, M. Hada, M. Ehara, K. Toyota, R. Fukuda, 
 J. Hasegawa, M. Ishida, T. Nakajima, Y. Honda, O. Kitao, H. Nakai, 
 T. Vreven, K. Throssell, J. A. Montgomery, Jr., J. E. Peralta, 
 F. Ogliaro, M. J. Bearpark, J. J. Heyd, E. N. Brothers, K. N. Kudin, 
 V. N. Staroverov, T. A. Keith, R. Kobayashi, J. Normand, 
 K. Raghavachari, A. P. Rendell, J. C. Burant, S. S. Iyengar, 
 J. Tomasi, M. Cossi, J. M. Millam, M. Klene, C. Adamo, R. Cammi, 
 J. W. Ochterski, R. L. Martin, K. Morokuma, O. Farkas, 
 J. B. Foresman, and D. J. Fox, Gaussian, Inc., Wallingford CT, 2016.
 
 ******************************************
 Gaussian 16:  ES64L-G16RevB.01 20-Dec-2017
                10-Aug-2019 
 ******************************************
 %chk=freq.chk
 ----------------------------------------------------------------------
 # freq=(modredundant,intmodes) iop(1/33=3) b3lyp/6-31g(d,p) iop(7/75=-
 1)
 ----------------------------------------------------------------------
 1/10=4,18=120,30=1,33=3,38=1/1,3;
 2/9=110,12=2,17=6,18=5,40=1/2;
 3/5=1,6=6,7=101,11=2,25=1,30=1,71=2,74=-5,140=1/1,2,3;
 4//1;
 5/5=2,38=5,98=1/2;
 8/6=4,10=90,11=11/1;
 11/6=1,8=1,9=11,15=111,16=1/1,2,10;
 10/6=1/2;
 6/7=2,8=2,9=2,10=2,28=1/1;
 7/8=21,10=1,25=1,75=-1/1,2,3,16;
 1/10=4,18=20,30=1,33=3/3;
 99//99;
 ONIOM results not found on unit 2.
 ----
 name
 ----
 TstMul:  ICh=     0
 TstMul:  Mul=     1
 TstMul:  ICh=     0
 TstMul:  Mul=     1
 Symbolic Z-matrix:
 Charge =  0 Multiplicity = 1
 C                     0.        0.        0.6046 
 C                     0.        0.       -0.6046 
 C                     0.        0.       -2.06521 
 H                     0.        1.02071  -2.46428 
 H                     0.88396  -0.51035  -2.46428 
 H                    -0.88396  -0.51035  -2.46428 
 C                     0.        0.        2.06521 
 H                     0.        1.02071   2.46428 
 H                    -0.88396  -0.51035   2.46428 
 H                     0.88396  -0.51035   2.46428 
 
 RdStrC is calling ZToCFu for IStruc=1 NZ=    10.
                                ZToCFu                                
 ---------------------------------------------------------------------
 Center     Atomic      Atomic             Coordinates (Angstroms)
 Number     Number       Type             X           Y           Z
 ---------------------------------------------------------------------
      1          6           0        0.000000    0.000000    0.604598
      2          6           0        0.000000    0.000000   -0.604598
      3          6           0        0.000000    0.000000   -2.065214
      4          1           0        0.000000    1.020707   -2.464280
      5          1           0        0.883958   -0.510353   -2.464280
      6          1           0       -0.883958   -0.510353   -2.464280
      7          6           0        0.000000    0.000000    2.065214
      8          1           0        0.000000    1.020707    2.464280
      9          1           0       -0.883958   -0.510353    2.464280
     10          1           0        0.883958   -0.510353    2.464280
 ---------------------------------------------------------------------
 PrtBox:  NBox=     2 Levels=  1 BoxLen=    8.00 SMaxX=        9.31
          Shift=            1.670439            0.964427            4.656814
 Box      1 Number                   0 centers from      1 to      6:
            I=     1 IX=     1 XYZ=      1      1      1 Ind=                   0
            I=     2 IX=     2 XYZ=      1      1      1 Ind=                   0
            I=     3 IX=     3 XYZ=      1      1      1 Ind=                   0
            I=     4 IX=     4 XYZ=      1      1      1 Ind=                   0
            I=     5 IX=     5 XYZ=      1      1      1 Ind=                   0
            I=     6 IX=     6 XYZ=      1      1      1 Ind=                   0
 Box      2 Number                   1 centers from      7 to     10:
            I=     7 IX=     7 XYZ=      1      1      2 Ind=                   1
            I=     8 IX=     8 XYZ=      1      1      2 Ind=                   1
            I=     9 IX=     9 XYZ=      1      1      2 Ind=                   1
            I=    10 IX=    10 XYZ=      1      1      2 Ind=                   1
 GenCBx connectivity:
 I=     1 IAn=  6 IBond, IBType=     2     3     7     1
 I=     2 IAn=  6 IBond, IBType=     1     3     3     1
 I=     3 IAn=  6 IBond, IBType=     2     1     4     1     5     1     6     1
 I=     4 IAn=  1 IBond, IBType=     3     1
 I=     5 IAn=  1 IBond, IBType=     3     1
 I=     6 IAn=  1 IBond, IBType=     3     1
 I=     7 IAn=  6 IBond, IBType=     1     1     8     1     9     1    10     1
 I=     8 IAn=  1 IBond, IBType=     7     1
 I=     9 IAn=  1 IBond, IBType=     7     1
 I=    10 IAn=  1 IBond, IBType=     7     1
 Connectivity in DoCon:
 I=     1 IAn=  6 IBond, RBType=     2  3.00     7  1.00
 I=     2 IAn=  6 IBond, RBType=     1  3.00     3  1.00
 I=     3 IAn=  6 IBond, RBType=     2  1.00     4  1.00     5  1.00     6  1.00
 I=     4 IAn=  1 IBond, RBType=     3  1.00
 I=     5 IAn=  1 IBond, RBType=     3  1.00
 I=     6 IAn=  1 IBond, RBType=     3  1.00
 I=     7 IAn=  6 IBond, RBType=     1  1.00     8  1.00     9  1.00    10  1.00
 I=     8 IAn=  1 IBond, RBType=     7  1.00
 I=     9 IAn=  1 IBond, RBType=     7  1.00
 I=    10 IAn=  1 IBond, RBType=     7  1.00
 After GenITR:
 ITRead=  0  0  0  0  0  0  0  0  0  0
 MicOpt= -1 -1 -1 -1 -1 -1 -1 -1 -1 -1
 List IsCon N=     10 M=      2:
 I=      1 Vals=      2      3 |      7      1 |
 I=      2 Vals=      1      3 |      3      1 |
 I=      3 Vals=      2      1 |      4      1 |      5      1 |      6      1 |
 I=      4 Vals=      3      1 |
 I=      5 Vals=      3      1 |
 I=      6 Vals=      3      1 |
 I=      7 Vals=      1      1 |      8      1 |      9      1 |     10      1 |
 I=      8 Vals=      7      1 |
 I=      9 Vals=      7      1 |
 I=     10 Vals=      7      1 |
 The following ModRedundant input section has been read:
 B       1       2 A                                                           
 B       1       7 A                                                           
 B       2       3 A                                                           
 B       3       4 A                                                           
 B       3       5 A                                                           
 B       3       6 A                                                           
 B       7       8 A                                                           
 B       7       9 A                                                           
 B       7      10 A                                                           
 A       2       3       4 A                                                   
 A       2       3       5 A                                                   
 A       2       3       6 A                                                   
 A       4       3       5 A                                                   
 A       4       3       6 A                                                   
 A       5       3       6 A                                                   
 A       1       7       8 A                                                   
 A       1       7       9 A                                                   
 A       1       7      10 A                                                   
 A       8       7       9 A                                                   
 A       8       7      10 A                                                   
 A       9       7      10 A                                                   
 D       4       3       7       8 A                                           
 D       5       3       7       8 A                                           
 D       6       3       7       8 A                                           
 D       4       3       7       9 A                                           
 D       5       3       7       9 A                                           
 D       6       3       7       9 A                                           
 D       4       3       7      10 A                                           
 D       5       3       7      10 A                                           
 D       6       3       7      10 A                                           
 
 Coordinate R1 contains atom 1 which is already in QM block.
 Coordinate R1 contains atom 2 which is already in QM block.
 Coordinate R2 contains atom 1 which is already in QM block.
 Coordinate R2 contains atom 7 which is already in QM block.
 Coordinate R3 contains atom 2 which is already in QM block.
 Coordinate R3 contains atom 3 which is already in QM block.
 Coordinate R4 contains atom 3 which is already in QM block.
 Coordinate R4 contains atom 4 which is already in QM block.
 Coordinate R5 contains atom 3 which is already in QM block.
 Coordinate R5 contains atom 5 which is already in QM block.
 Coordinate R6 contains atom 3 which is already in QM block.
 Coordinate R6 contains atom 6 which is already in QM block.
 Coordinate R7 contains atom 7 which is already in QM block.
 Coordinate R7 contains atom 8 which is already in QM block.
 Coordinate R8 contains atom 7 which is already in QM block.
 Coordinate R8 contains atom 9 which is already in QM block.
 Coordinate R9 contains atom 7 which is already in QM block.
 Coordinate R9 contains atom 10 which is already in QM block.
 Coordinate A1 contains atom 2 which is already in QM block.
 Coordinate A1 contains atom 3 which is already in QM block.
 Coordinate A1 contains atom 3 which is already in QM block.
 Coordinate A2 contains atom 2 which is already in QM block.
 Coordinate A2 contains atom 3 which is already in QM block.
 Coordinate A2 contains atom 3 which is already in QM block.
 Coordinate A3 contains atom 2 which is already in QM block.
 Coordinate A3 contains atom 3 which is already in QM block.
 Coordinate A3 contains atom 3 which is already in QM block.
 Coordinate A4 contains atom 4 which is already in QM block.
 Coordinate A4 contains atom 3 which is already in QM block.
 Coordinate A4 contains atom 3 which is already in QM block.
 Coordinate A5 contains atom 4 which is already in QM block.
 Coordinate A5 contains atom 3 which is already in QM block.
 Coordinate A5 contains atom 3 which is already in QM block.
 Coordinate A6 contains atom 5 which is already in QM block.
 Coordinate A6 contains atom 3 which is already in QM block.
 Coordinate A6 contains atom 3 which is already in QM block.
 Coordinate A7 contains atom 1 which is already in QM block.
 Coordinate A7 contains atom 7 which is already in QM block.
 Coordinate A7 contains atom 7 which is already in QM block.
 Coordinate A8 contains atom 1 which is already in QM block.
 Coordinate A8 contains atom 7 which is already in QM block.
 Coordinate A8 contains atom 7 which is already in QM block.
 Coordinate A9 contains atom 1 which is already in QM block.
 Coordinate A9 contains atom 7 which is already in QM block.
 Coordinate A9 contains atom 7 which is already in QM block.
 Coordinate A10 contains atom 8 which is already in QM block.
 Coordinate A10 contains atom 7 which is already in QM block.
 Coordinate A10 contains atom 7 which is already in QM block.
 Coordinate A11 contains atom 8 which is already in QM block.
 Coordinate A11 contains atom 7 which is already in QM block.
 Coordinate A11 contains atom 7 which is already in QM block.
 Coordinate A12 contains atom 9 which is already in QM block.
 Coordinate A12 contains atom 7 which is already in QM block.
 Coordinate A12 contains atom 7 which is already in QM block.
 Coordinate L13 contains atom 2 which is already in QM block.
 Coordinate L13 contains atom 1 which is already in QM block.
 Coordinate L13 contains atom 1 which is already in QM block.
 Coordinate L13 contains atom 8 which is already in QM block.
 Coordinate L14 contains atom 1 which is already in QM block.
 Coordinate L14 contains atom 2 which is already in QM block.
 Coordinate L14 contains atom 2 which is already in QM block.
 Coordinate L14 contains atom 4 which is already in QM block.
 Coordinate L15 contains atom 2 which is already in QM block.
 Coordinate L15 contains atom 1 which is already in QM block.
 Coordinate L15 contains atom 1 which is already in QM block.
 Coordinate L15 contains atom 8 which is already in QM block.
 Coordinate L16 contains atom 1 which is already in QM block.
 Coordinate L16 contains atom 2 which is already in QM block.
 Coordinate L16 contains atom 2 which is already in QM block.
 Coordinate L16 contains atom 4 which is already in QM block.
 Coordinate D1 contains atom 4 which is already in QM block.
 Coordinate D1 contains atom 3 which is already in QM block.
 Coordinate D1 contains atom 6 which is already in QM block.
 Coordinate D1 contains atom 5 which is already in QM block.
 Coordinate D2 contains atom 4 which is already in QM block.
 Coordinate D2 contains atom 3 which is already in QM block.
 Coordinate D2 contains atom 7 which is already in QM block.
 Coordinate D2 contains atom 8 which is already in QM block.
 Coordinate D3 contains atom 4 which is already in QM block.
 Coordinate D3 contains atom 3 which is already in QM block.
 Coordinate D3 contains atom 7 which is already in QM block.
 Coordinate D3 contains atom 9 which is already in QM block.
 Coordinate D4 contains atom 4 which is already in QM block.
 Coordinate D4 contains atom 3 which is already in QM block.
 Coordinate D4 contains atom 7 which is already in QM block.
 Coordinate D4 contains atom 10 which is already in QM block.
 Coordinate D5 contains atom 5 which is already in QM block.
 Coordinate D5 contains atom 3 which is already in QM block.
 Coordinate D5 contains atom 7 which is already in QM block.
 Coordinate D5 contains atom 8 which is already in QM block.
 Coordinate D6 contains atom 5 which is already in QM block.
 Coordinate D6 contains atom 3 which is already in QM block.
 Coordinate D6 contains atom 7 which is already in QM block.
 Coordinate D6 contains atom 9 which is already in QM block.
 Coordinate D7 contains atom 5 which is already in QM block.
 Coordinate D7 contains atom 3 which is already in QM block.
 Coordinate D7 contains atom 7 which is already in QM block.
 Coordinate D7 contains atom 10 which is already in QM block.
 Coordinate D8 contains atom 6 which is already in QM block.
 Coordinate D8 contains atom 3 which is already in QM block.
 Coordinate D8 contains atom 7 which is already in QM block.
 Coordinate D8 contains atom 8 which is already in QM block.
 Coordinate D9 contains atom 6 which is already in QM block.
 Coordinate D9 contains atom 3 which is already in QM block.
 Coordinate D9 contains atom 7 which is already in QM block.
 Coordinate D9 contains atom 9 which is already in QM block.
 Coordinate D10 contains atom 6 which is already in QM block.
 Coordinate D10 contains atom 3 which is already in QM block.
 Coordinate D10 contains atom 7 which is already in QM block.
 Coordinate D10 contains atom 10 which is already in QM block.
 Coordinate D11 contains atom 8 which is already in QM block.
 Coordinate D11 contains atom 7 which is already in QM block.
 Coordinate D11 contains atom 10 which is already in QM block.
 Coordinate D11 contains atom 9 which is already in QM block.
 Saved connectivity
 I=     1 IAn=  6 IBond, RBType=     2  3.00     7  1.00
 I=     2 IAn=  6 IBond, RBType=     1  3.00     3  1.00
 I=     3 IAn=  6 IBond, RBType=     2  1.00     4  1.00     5  1.00     6  1.00
 I=     4 IAn=  1 IBond, RBType=     3  1.00
 I=     5 IAn=  1 IBond, RBType=     3  1.00
 I=     6 IAn=  1 IBond, RBType=     3  1.00
 I=     7 IAn=  6 IBond, RBType=     1  1.00     8  1.00     9  1.00    10  1.00
 I=     8 IAn=  1 IBond, RBType=     7  1.00
 I=     9 IAn=  1 IBond, RBType=     7  1.00
 I=    10 IAn=  1 IBond, RBType=     7  1.00
 ITRead=  0  0  0  0  0  0  0  0  0  0
 MicOpt= -1 -1 -1 -1 -1 -1 -1 -1 -1 -1
 NAtoms=     10 NQM=       10 NQMF=       0 NMMI=      0 NMMIF=      0
                NMic=       0 NMicF=      0.
 No MM parameters found.
 Leave Link  101 at Sat Aug 10 22:42:03 2019, MaxMem=  4294967296 cpu:               5.7 elap:               0.4

 GradGradGradGradGradGradGradGradGradGradGradGradGradGradGradGradGradGrad
 Berny optimization.
 GetPCM: File not found, return IValue=0.
 Optmz: redundant internal coordinate code flag= 1
 Initialization pass.
                           ----------------------------
                           !    Initial Parameters    !
                           ! (Angstroms and Degrees)  !
 --------------------------                            --------------------------
 ! Name  Definition              Value          Derivative Info.                !
 --------------------------------------------------------------------------------
 ! R1    R(1,2)                  1.2092         calculate D2E/DX2 analytically  !
 ! R2    R(1,7)                  1.4606         calculate D2E/DX2 analytically  !
 ! R3    R(2,3)                  1.4606         calculate D2E/DX2 analytically  !
 ! R4    R(3,4)                  1.0959         calculate D2E/DX2 analytically  !
 ! R5    R(3,5)                  1.0959         calculate D2E/DX2 analytically  !
 ! R6    R(3,6)                  1.0959         calculate D2E/DX2 analytically  !
 ! R7    R(7,8)                  1.0959         calculate D2E/DX2 analytically  !
 ! R8    R(7,9)                  1.0959         calculate D2E/DX2 analytically  !
 ! R9    R(7,10)                 1.0959         calculate D2E/DX2 analytically  !
 ! A1    A(2,3,4)              111.354          calculate D2E/DX2 analytically  !
 ! A2    A(2,3,5)              111.354          calculate D2E/DX2 analytically  !
 ! A3    A(2,3,6)              111.354          calculate D2E/DX2 analytically  !
 ! A4    A(4,3,5)              107.5245         calculate D2E/DX2 analytically  !
 ! A5    A(4,3,6)              107.5245         calculate D2E/DX2 analytically  !
 ! A6    A(5,3,6)              107.5246         calculate D2E/DX2 analytically  !
 ! A7    A(1,7,8)              111.354          calculate D2E/DX2 analytically  !
 ! A8    A(1,7,9)              111.354          calculate D2E/DX2 analytically  !
 ! A9    A(1,7,10)             111.354          calculate D2E/DX2 analytically  !
 ! A10   A(8,7,9)              107.5245         calculate D2E/DX2 analytically  !
 ! A11   A(8,7,10)             107.5245         calculate D2E/DX2 analytically  !
 ! A12   A(9,7,10)             107.5246         calculate D2E/DX2 analytically  !
 ! A13   L(2,1,7,8,-1)         180.0            calculate D2E/DX2 analytically  !
 ! A14   L(1,2,3,4,-1)         180.0            calculate D2E/DX2 analytically  !
 ! A15   L(2,1,7,8,-2)         180.0            calculate D2E/DX2 analytically  !
 ! A16   L(1,2,3,4,-2)         180.0            calculate D2E/DX2 analytically  !
 ! D1    D(4,3,6,5)            115.5215         calculate D2E/DX2 analytically  !
 ! D2    D(4,3,7,8)              0.0            calculate D2E/DX2 analytically  !
 ! D3    D(4,3,7,9)            120.0            calculate D2E/DX2 analytically  !
 ! D4    D(4,3,7,10)          -120.0            calculate D2E/DX2 analytically  !
 ! D5    D(5,3,7,8)            120.0            calculate D2E/DX2 analytically  !
 ! D6    D(5,3,7,9)           -120.0            calculate D2E/DX2 analytically  !
 ! D7    D(5,3,7,10)             0.0            calculate D2E/DX2 analytically  !
 ! D8    D(6,3,7,8)           -120.0            calculate D2E/DX2 analytically  !
 ! D9    D(6,3,7,9)              0.0            calculate D2E/DX2 analytically  !
 ! D10   D(6,3,7,10)           120.0            calculate D2E/DX2 analytically  !
 ! D11   D(8,7,10,9)           115.5215         calculate D2E/DX2 analytically  !
 --------------------------------------------------------------------------------
 Maximum allowed force set to 1.00D+20.
 Trust Radius=3.00D-01 FncErr=1.00D-07 GrdErr=1.00D-07 EigMax=2.50D+02 EigMin=1.00D-04
 Number of steps in this run=      2 maximum allowed number of steps=      2.
 GradGradGradGradGradGradGradGradGradGradGradGradGradGradGradGradGradGrad

 Leave Link  103 at Sat Aug 10 22:42:03 2019, MaxMem=  4294967296 cpu:               0.2 elap:               0.0
                          Input orientation:                          
 ---------------------------------------------------------------------
 Center     Atomic      Atomic             Coordinates (Angstroms)
 Number     Number       Type             X           Y           Z
 ---------------------------------------------------------------------
      1          6           0        0.000000    0.000000    0.604598
      2          6           0        0.000000    0.000000   -0.604598
      3          6           0        0.000000    0.000000   -2.065214
      4          1           0        0.000000    1.020707   -2.464280
      5          1           0        0.883958   -0.510353   -2.464280
      6          1           0       -0.883958   -0.510353   -2.464280
      7          6           0        0.000000    0.000000    2.065214
      8          1           0        0.000000    1.020707    2.464280
      9          1           0       -0.883958   -0.510353    2.464280
     10          1           0        0.883958   -0.510353    2.464280
 ---------------------------------------------------------------------
                    Distance matrix (angstroms):
                    1          2          3          4          5
     1  C    0.000000
     2  C    1.209196   0.000000
     3  C    2.669812   1.460616   0.000000
     4  H    3.234170   2.121382   1.095945   0.000000
     5  H    3.234170   2.121381   1.095945   1.767916   0.000000
     6  H    3.234170   2.121381   1.095945   1.767916   1.767916
     7  C    1.460616   2.669812   4.130428   4.643076   4.643076
     8  H    2.121382   3.234170   4.643076   4.928560   5.236051
     9  H    2.121381   3.234170   4.643076   5.236051   5.236051
    10  H    2.121381   3.234170   4.643076   5.236051   4.928560
                    6          7          8          9         10
     6  H    0.000000
     7  C    4.643076   0.000000
     8  H    5.236051   1.095945   0.000000
     9  H    4.928560   1.095945   1.767916   0.000000
    10  H    5.236051   1.095945   1.767916   1.767916   0.000000
 Stoichiometry    C4H6
 Framework group  D3H[C3(CC.CC),3SGV(H2)]
 Deg. of freedom     4
 Full point group                 D3H     NOp  12
 Largest Abelian subgroup         C2V     NOp   4
 Largest concise Abelian subgroup C2V     NOp   4
                         Standard orientation:                         
 ---------------------------------------------------------------------
 Center     Atomic      Atomic             Coordinates (Angstroms)
 Number     Number       Type             X           Y           Z
 ---------------------------------------------------------------------
      1          6           0        0.000000   -0.000000    0.604598
      2          6           0        0.000000   -0.000000   -0.604598
      3          6           0        0.000000   -0.000000   -2.065214
      4          1           0        0.000000    1.020707   -2.464280
      5          1           0        0.883958   -0.510353   -2.464280
      6          1           0       -0.883958   -0.510353   -2.464280
      7          6           0       -0.000000   -0.000000    2.065214
      8          1           0       -0.000000    1.020707    2.464280
      9          1           0       -0.883958   -0.510353    2.464280
     10          1           0        0.883958   -0.510353    2.464280
 ---------------------------------------------------------------------
 Rotational constants (GHZ):          80.2192646           3.3467324           3.3467324
 Standard basis: 6-31G(d,p) (6D, 7F)
 There are    31 symmetry adapted cartesian basis functions of A1  symmetry.
 There are    14 symmetry adapted cartesian basis functions of A2  symmetry.
 There are    14 symmetry adapted cartesian basis functions of B1  symmetry.
 There are    31 symmetry adapted cartesian basis functions of B2  symmetry.
 There are    31 symmetry adapted basis functions of A1  symmetry.
 There are    14 symmetry adapted basis functions of A2  symmetry.
 There are    14 symmetry adapted basis functions of B1  symmetry.
 There are    31 symmetry adapted basis functions of B2  symmetry.
    90 basis functions,   154 primitive gaussians,    90 cartesian basis functions
    15 alpha electrons       15 beta electrons
       nuclear repulsion energy        99.8036600053 Hartrees.
 NAtoms=   10 NActive=   10 NUniq=    3 SFac= 4.00D+00 NAtFMM=   60 NAOKFM=F Big=F
 Integral buffers will be    131072 words long.
 Raffenetti 2 integral format.
 Two-electron integral symmetry is turned on.
 One-electron integrals computed using PRISM.
 NBasis=    90 RedAO= T EigKep=  2.41D-04  NBF=    31    14    14    31
 NBsUse=    90 1.00D-06 EigRej= -1.00D+00 NBFU=    31    14    14    31
 ExpMin= 1.61D-01 ExpMax= 3.05D+03 ExpMxC= 4.57D+02 IAcc=3 IRadAn=         5 AccDes= 0.00D+00
 Harris functional with IExCor=  402 and IRadAn=       5 diagonalized for initial guess.
 HarFok:  IExCor=  402 AccDes= 0.00D+00 IRadAn=         5 IDoV= 1 UseB2=F ITyADJ=14
 ICtDFT=  3500011 ScaDFX=  1.000000  1.000000  1.000000  1.000000
 FoFCou: FMM=F IPFlag=           0 FMFlag=      100000 FMFlg1=           0
         NFxFlg=           0 DoJE=T BraDBF=F KetDBF=T FulRan=T
         wScrn=  0.000000 ICntrl=       500 IOpCl=  0 I1Cent=   200000004 NGrid=           0
         NMat0=    1 NMatS0=      1 NMatT0=    0 NMatD0=    1 NMtDS0=    0 NMtDT0=    0
 Petite list used in FoFCou.
 Initial guess orbital symmetries:
       Occupied  (A1') (A2") (A1') (A2") (A1') (A2") (A1') (A2")
                 (A1') (E') (E') (E") (E") (E') (E')
       Virtual   (E") (E") (A2") (A1') (A2") (E') (E') (E") (E")
                 (A1') (A2") (A1') (E') (E') (E") (E") (E') (E')
                 (A1') (E") (E") (A2") (E') (E') (A2") (A1') (E")
                 (E") (A1') (A2") (E') (E') (A2") (E') (E') (E")
                 (E") (A1') (A2") (E') (E') (E") (E") (A1') (A2')
                 (A1") (E') (E') (E") (E") (A2") (E") (E") (E')
                 (E') (A1') (E") (E") (A2") (A1') (E') (E') (E")
                 (E") (A2") (A1') (E') (E') (E") (E") (A2") (A1')
                 (A2") (A1') (A2")
 The electronic state of the initial guess is 1-A1'.
 Keep R1 ints in memory in symmetry-blocked form, NReq=23025732.
 Requested convergence on RMS density matrix=1.00D-08 within 128 cycles.
 Requested convergence on MAX density matrix=1.00D-06.
 Requested convergence on             energy=1.00D-06.
 No special actions if energy rises.
 Integral accuracy reduced to 1.0D-05 until final iterations.
 Initial convergence to 1.0D-05 achieved.  Increase integral accuracy.
 SCF Done:  E(RB3LYP) =  -155.987339812     A.U. after   10 cycles
            NFock= 10  Conv=0.11D-08     -V/T= 2.0102
 DoSCS=F DFT=T ScalE2(SS,OS)=  1.000000  1.000000
 Range of M.O.s used for correlation:     1    90
 NBasis=    90 NAE=    15 NBE=    15 NFC=     0 NFV=     0
 NROrb=     90 NOA=    15 NOB=    15 NVA=    75 NVB=    75

 **** Warning!!: The largest alpha MO coefficient is  0.26284035D+02

 Symmetrizing basis deriv contribution to polar:
 IMax=3 JMax=2 DiffMx= 0.00D+00
 G2DrvN: will do    11 centers at a time, making    1 passes.
 Calling FoFCou, ICntrl=  3107 FMM=F I1Cent=   0 AccDes= 0.00D+00.
 End of G2Drv F.D. properties file   721 does not exist.
 End of G2Drv F.D. properties file   722 does not exist.
 End of G2Drv F.D. properties file   788 does not exist.
          IDoAtm=1111111111
          Differentiating once with respect to electric field.
                with respect to dipole field.
          Differentiating once with respect to nuclear coordinates.
 Keep R1 ints in memory in symmetry-blocked form, NReq=22979395.
          There are    12 degrees of freedom in the 1st order CPHF.  IDoFFX=4 NUNeed=    12.
     12 vectors produced by pass  0 Test12= 9.38D-15 8.33D-09 XBig12= 6.51D+01 5.21D+00.
 AX will form    12 AO Fock derivatives at one time.
     12 vectors produced by pass  1 Test12= 9.38D-15 8.33D-09 XBig12= 3.66D+01 2.10D+00.
     12 vectors produced by pass  2 Test12= 9.38D-15 8.33D-09 XBig12= 8.95D-01 1.91D-01.
     12 vectors produced by pass  3 Test12= 9.38D-15 8.33D-09 XBig12= 2.26D-02 3.58D-02.
     12 vectors produced by pass  4 Test12= 9.38D-15 8.33D-09 XBig12= 8.03D-05 2.51D-03.
     12 vectors produced by pass  5 Test12= 9.38D-15 8.33D-09 XBig12= 1.28D-07 7.05D-05.
      5 vectors produced by pass  6 Test12= 9.38D-15 8.33D-09 XBig12= 1.76D-10 2.76D-06.
      4 vectors produced by pass  7 Test12= 9.38D-15 8.33D-09 XBig12= 2.77D-13 1.27D-07.
 InvSVY:  IOpt=1 It=  1 EMax= 1.33D-15
 Solved reduced A of dimension    81 with    12 vectors.
 Isotropic polarizability for W=    0.000000       40.56 Bohr**3.
 End of Minotr F.D. properties file   721 does not exist.
 End of Minotr F.D. properties file   722 does not exist.
 End of Minotr F.D. properties file   788 does not exist.

 **********************************************************************

            Population analysis using the SCF Density.

 **********************************************************************

 Orbital symmetries:
       Occupied  (A2") (A1') (A1') (A2") (A1') (A2") (A1') (A2")
                 (A1') (E') (E') (E") (E") (E') (E')
       Virtual   (E") (E") (A2") (A1') (E') (E') (E") (E") (A2")
                 (A1') (A2") (A1') (E') (E') (E") (E") (E') (E')
                 (A1') (E") (E") (A2") (E') (E') (E") (E") (A1')
                 (A2") (A1') (A2") (E') (E') (A2") (A1') (E") (E")
                 (E') (E') (A2") (E') (E') (E") (E") (A1') (A2')
                 (A1") (E') (E') (E") (E") (A2") (E") (E") (E')
                 (E') (A1') (E") (E") (A2") (A1') (E') (E') (E")
                 (E") (A2") (A1') (E') (E') (E") (E") (A2") (A1')
                 (A2") (A1') (A2")
 The electronic state is 1-A1'.
 Alpha  occ. eigenvalues --  -10.19912 -10.19912 -10.16928 -10.16695  -0.77488
 Alpha  occ. eigenvalues --   -0.73908  -0.65968  -0.47506  -0.42794  -0.42508
 Alpha  occ. eigenvalues --   -0.42508  -0.41339  -0.41339  -0.24025  -0.24025
 Alpha virt. eigenvalues --    0.06847   0.06847   0.11625   0.11790   0.16995
 Alpha virt. eigenvalues --    0.16995   0.21143   0.21143   0.21320   0.26706
 Alpha virt. eigenvalues --    0.39177   0.43924   0.53051   0.53051   0.60411
 Alpha virt. eigenvalues --    0.60411   0.66208   0.66208   0.75568   0.77005
 Alpha virt. eigenvalues --    0.77005   0.78957   0.83983   0.83983   0.87575
 Alpha virt. eigenvalues --    0.87575   0.89267   0.90619   1.01862   1.13604
 Alpha virt. eigenvalues --    1.28477   1.28477   1.45465   1.54679   1.54997
 Alpha virt. eigenvalues --    1.54997   1.55946   1.55946   1.59369   1.77470
 Alpha virt. eigenvalues --    1.77470   1.91732   1.91732   1.97362   2.03948
 Alpha virt. eigenvalues --    2.03948   2.08802   2.08802   2.10232   2.10232
 Alpha virt. eigenvalues --    2.16496   2.18720   2.18720   2.43355   2.43355
 Alpha virt. eigenvalues --    2.54351   2.71638   2.71638   2.74249   2.78883
 Alpha virt. eigenvalues --    2.83281   2.83281   3.06114   3.06114   3.11328
 Alpha virt. eigenvalues --    3.19178   3.41516   3.41516   3.44546   3.44546
 Alpha virt. eigenvalues --    3.55441   4.15990   4.27832   4.62478   4.84555
          Condensed to atoms (all electrons):
               1          2          3          4          5          6
     1  C    5.115498   0.638513  -0.105038   0.001945   0.001945   0.001945
     2  C    0.638513   5.115498   0.405793  -0.024866  -0.024866  -0.024866
     3  C   -0.105038   0.405793   5.010033   0.368587   0.368587   0.368587
     4  H    0.001945  -0.024866   0.368587   0.583741  -0.032275  -0.032275
     5  H    0.001945  -0.024866   0.368587  -0.032275   0.583741  -0.032275
     6  H    0.001945  -0.024866   0.368587  -0.032275  -0.032275   0.583741
     7  C    0.405793  -0.105038   0.002876  -0.000007  -0.000007  -0.000007
     8  H   -0.024866   0.001945  -0.000007   0.000027  -0.000005  -0.000005
     9  H   -0.024866   0.001945  -0.000007  -0.000005  -0.000005   0.000027
    10  H   -0.024866   0.001945  -0.000007  -0.000005   0.000027  -0.000005
               7          8          9         10
     1  C    0.405793  -0.024866  -0.024866  -0.024866
     2  C   -0.105038   0.001945   0.001945   0.001945
     3  C    0.002876  -0.000007  -0.000007  -0.000007
     4  H   -0.000007   0.000027  -0.000005  -0.000005
     5  H   -0.000007  -0.000005  -0.000005   0.000027
     6  H   -0.000007  -0.000005   0.000027  -0.000005
     7  C    5.010033   0.368587   0.368587   0.368587
     8  H    0.368587   0.583741  -0.032275  -0.032275
     9  H    0.368587  -0.032275   0.583741  -0.032275
    10  H    0.368587  -0.032275  -0.032275   0.583741
 Mulliken charges:
               1
     1  C    0.013996
     2  C    0.013996
     3  C   -0.419401
     4  H    0.135135
     5  H    0.135135
     6  H    0.135135
     7  C   -0.419401
     8  H    0.135135
     9  H    0.135135
    10  H    0.135135
 Sum of Mulliken charges =   0.00000
 Mulliken charges with hydrogens summed into heavy atoms:
               1
     1  C    0.013996
     2  C    0.013996
     3  C   -0.013996
     7  C   -0.013996
 APT charges:
               1
     1  C   -0.105367
     2  C   -0.105367
     3  C    0.171860
     4  H   -0.022164
     5  H   -0.022164
     6  H   -0.022164
     7  C    0.171860
     8  H   -0.022164
     9  H   -0.022164
    10  H   -0.022164
 Sum of APT charges =   0.00000
 APT charges with hydrogens summed into heavy atoms:
               1
     1  C   -0.105367
     2  C   -0.105367
     3  C    0.105368
     7  C    0.105368
 Electronic spatial extent (au):  <R**2>=            402.3392
 Charge=              0.0000 electrons
 Dipole moment (field-independent basis, Debye):
    X=              0.0000    Y=              0.0000    Z=              0.0000  Tot=              0.0000
 Quadrupole moment (field-independent basis, Debye-Ang):
   XX=            -25.1544   YY=            -25.1544   ZZ=            -18.9130
   XY=             -0.0000   XZ=              0.0000   YZ=              0.0000
 Traceless Quadrupole moment (field-independent basis, Debye-Ang):
   XX=             -2.0805   YY=             -2.0805   ZZ=              4.1609
   XY=             -0.0000   XZ=              0.0000   YZ=              0.0000
 Octapole moment (field-independent basis, Debye-Ang**2):
  XXX=              0.0000  YYY=              1.1687  ZZZ=              0.0000  XYY=              0.0000
  XXY=             -1.1687  XXZ=              0.0000  XZZ=              0.0000  YZZ=             -0.0000
  YYZ=             -0.0000  XYZ=             -0.0000
 Hexadecapole moment (field-independent basis, Debye-Ang**3):
 XXXX=            -38.7884 YYYY=            -38.7884 ZZZZ=           -452.0402 XXXY=              0.0000
 XXXZ=              0.0000 YYYX=              0.0000 YYYZ=             -0.0000 ZZZX=              0.0000
 ZZZY=              0.0000 XXYY=            -12.9295 XXZZ=            -79.6703 YYZZ=            -79.6703
 XXYZ=             -0.0000 YYXZ=              0.0000 ZZXY=             -0.0000
 N-N= 9.980366000533D+01 E-N=-5.601495520775D+02  KE= 1.544094201573D+02
 Symmetry A1   KE= 7.708083406636D+01
 Symmetry A2   KE= 1.946000752396D+00
 Symmetry B1   KE= 4.251683629110D+00
 Symmetry B2   KE= 7.113090170940D+01
  Exact polarizability:  28.033   0.000  28.033  -0.000  -0.000  65.623
 Approx polarizability:  36.977  -0.000  36.977   0.000   0.000  95.511
 Calling FoFJK, ICntrl=    100127 FMM=F ISym2X=1 I1Cent= 0 IOpClX= 0 NMat=1 NMatS=1 NMatT=0.
 Full mass-weighted force constant matrix:
 Low frequencies ---  -13.8457   -0.0084    0.0001    0.0077    3.4523    3.4605
 Low frequencies ---   14.2254  207.5960  207.5962
 Diagonal vibrational polarizability:
        5.8252387       5.8252013       0.3384890
 Harmonic frequencies (cm**-1), IR intensities (KM/Mole), Raman scattering
 activities (A**4/AMU), depolarization ratios for plane and unpolarized
 incident light, reduced masses (AMU), force constants (mDyne/A),
 and normal coordinates:
                      1                      2                      3
                     A1"                    E'                     E'
 Frequencies --     14.2254               207.5960               207.5962
 Red. masses --      1.0078                 2.7732                 2.7732
 Frc consts  --      0.0001                 0.0704                 0.0704
 IR Inten    --      0.0000                 8.8670                 8.8671
  Atom  AN      X      Y      Z        X      Y      Z        X      Y      Z
     1   6    -0.00  -0.00   0.00    -0.00   0.23   0.00     0.23   0.00  -0.00
     2   6     0.00  -0.00   0.00    -0.00   0.23  -0.00     0.23   0.00  -0.00
     3   6     0.00   0.00   0.00     0.00  -0.16  -0.00    -0.16  -0.00  -0.00
     4   1     0.41   0.00   0.00     0.00  -0.29  -0.33    -0.29  -0.00  -0.00
     5   1    -0.20  -0.35  -0.00    -0.00  -0.29   0.17    -0.29  -0.00  -0.29
     6   1    -0.20   0.35   0.00     0.00  -0.29   0.17    -0.29   0.00   0.29
     7   6    -0.00   0.00  -0.00     0.00  -0.16   0.00    -0.16  -0.00   0.00
     8   1    -0.41   0.00  -0.00     0.00  -0.29   0.33    -0.29  -0.00   0.00
     9   1     0.20  -0.35   0.00     0.00  -0.29  -0.17    -0.29   0.00  -0.29
    10   1     0.20   0.35  -0.00    -0.00  -0.29  -0.17    -0.29  -0.00   0.29
                      4                      5                      6
                     E"                     E"                     A1'
 Frequencies --    377.4334               377.4334               729.9570
 Red. masses --      4.1550                 4.1550                 3.6170
 Frc consts  --      0.3487                 0.3487                 1.1355
 IR Inten    --      0.0000                 0.0000                 0.0000
  Atom  AN      X      Y      Z        X      Y      Z        X      Y      Z
     1   6     0.38  -0.00  -0.00     0.00   0.38   0.00    -0.00   0.00  -0.05
     2   6    -0.38   0.00  -0.00    -0.00  -0.38   0.00    -0.00   0.00   0.05
     3   6     0.03  -0.00   0.00     0.00   0.03  -0.00     0.00  -0.00   0.34
     4   1     0.19  -0.00  -0.00     0.00   0.19   0.41    -0.00   0.01   0.36
     5   1     0.19   0.00   0.35     0.00   0.19  -0.20     0.01  -0.00   0.36
     6   1     0.19  -0.00  -0.35    -0.00   0.19  -0.20    -0.01  -0.00   0.36
     7   6    -0.03   0.00  -0.00    -0.00  -0.03  -0.00     0.00  -0.00  -0.34
     8   1    -0.19   0.00  -0.00    -0.00  -0.19   0.41     0.00   0.01  -0.36
     9   1    -0.19   0.00  -0.35     0.00  -0.19  -0.20    -0.01  -0.00  -0.36
    10   1    -0.19  -0.00   0.35    -0.00  -0.19  -0.20     0.01  -0.00  -0.36
                      7                      8                      9
                     E"                     E"                     E'
 Frequencies --   1046.0196              1046.0196              1070.8047
 Red. masses --      1.4059                 1.4059                 1.3748
 Frc consts  --      0.9063                 0.9063                 0.9288
 IR Inten    --      0.0000                 0.0000                 3.2762
  Atom  AN      X      Y      Z        X      Y      Z        X      Y      Z
     1   6     0.08   0.00   0.00     0.00  -0.08  -0.00    -0.07  -0.00  -0.00
     2   6    -0.08  -0.00   0.00    -0.00   0.08  -0.00    -0.07  -0.00   0.00
     3   6     0.11   0.00  -0.00     0.00  -0.11   0.00     0.11   0.00  -0.00
     4   1    -0.24  -0.00  -0.00    -0.00   0.10   0.50    -0.24  -0.00  -0.00
     5   1    -0.13  -0.06  -0.44     0.06   0.21  -0.25    -0.13  -0.06  -0.44
     6   1    -0.13   0.06   0.44    -0.06   0.21  -0.25    -0.13   0.06   0.44
     7   6    -0.11  -0.00  -0.00    -0.00   0.11   0.00     0.11   0.00   0.00
     8   1     0.24   0.00  -0.00     0.00  -0.10   0.50    -0.24  -0.00   0.00
     9   1     0.13  -0.06   0.44     0.06  -0.21  -0.25    -0.13   0.06  -0.44
    10   1     0.13   0.06  -0.44    -0.06  -0.21  -0.25    -0.13  -0.06   0.44
                     10                     11                     12
                     E'                     A2"                    A2"
 Frequencies --   1070.8047              1177.8344              1426.0388
 Red. masses --      1.3748                 4.2910                 1.3040
 Frc consts  --      0.9288                 3.5074                 1.5624
 IR Inten    --      3.2762                 0.1707                 9.7285
  Atom  AN      X      Y      Z        X      Y      Z        X      Y      Z
     1   6    -0.00   0.07   0.00     0.00  -0.00   0.31    -0.00   0.00  -0.02
     2   6    -0.00   0.07  -0.00    -0.00   0.00   0.31    -0.00  -0.00  -0.02
     3   6     0.00  -0.11   0.00     0.00  -0.00  -0.23     0.00  -0.00   0.11
     4   1    -0.00   0.10   0.51    -0.00  -0.04  -0.34    -0.00  -0.17  -0.36
     5   1     0.06   0.20  -0.25    -0.04   0.02  -0.34    -0.15   0.09  -0.36
     6   1    -0.06   0.20  -0.25     0.04   0.02  -0.34     0.15   0.09  -0.36
     7   6     0.00  -0.11  -0.00    -0.00   0.00  -0.23    -0.00   0.00   0.11
     8   1    -0.00   0.10  -0.51     0.00   0.04  -0.34     0.00   0.17  -0.36
     9   1    -0.06   0.20   0.25    -0.04  -0.02  -0.34    -0.15  -0.09  -0.36
    10   1     0.06   0.20   0.25     0.04  -0.02  -0.34     0.15  -0.09  -0.36
                     13                     14                     15
                     A1'                    E"                     E"
 Frequencies --   1430.9723              1492.9484              1492.9484
 Red. masses --      1.2146                 1.0414                 1.0414
 Frc consts  --      1.4653                 1.3676                 1.3676
 IR Inten    --      0.0000                 0.0000                 0.0000
  Atom  AN      X      Y      Z        X      Y      Z        X      Y      Z
     1   6     0.00  -0.00   0.00     0.01   0.00   0.00    -0.00   0.01   0.00
     2   6     0.00  -0.00  -0.00    -0.01  -0.00   0.00     0.00  -0.01   0.00
     3   6    -0.00   0.00  -0.10    -0.04  -0.00  -0.00     0.00  -0.04  -0.00
     4   1     0.00   0.17   0.37     0.50  -0.00  -0.00    -0.00  -0.12  -0.26
     5   1     0.15  -0.08   0.37     0.03   0.27  -0.23     0.27   0.34   0.13
     6   1    -0.15  -0.08   0.37     0.03  -0.27   0.23    -0.27   0.34   0.13
     7   6    -0.00   0.00   0.10     0.04   0.00  -0.00    -0.00   0.04  -0.00
     8   1     0.00   0.17  -0.37    -0.50   0.00  -0.00     0.00   0.12  -0.26
     9   1    -0.15  -0.08  -0.37    -0.03   0.27   0.23     0.27  -0.34   0.13
    10   1     0.15  -0.08  -0.37    -0.03  -0.27  -0.23    -0.27  -0.34   0.13
                     16                     17                     18
                     E'                     E'                     A1'
 Frequencies --   1493.0996              1493.0996              2378.1860
 Red. masses --      1.0390                 1.0390                11.7852
 Frc consts  --      1.3647                 1.3647                39.2717
 IR Inten    --     10.3926                10.3925                 0.0000
  Atom  AN      X      Y      Z        X      Y      Z        X      Y      Z
     1   6    -0.00  -0.01   0.00    -0.01   0.00  -0.00    -0.00  -0.00   0.69
     2   6    -0.00  -0.01  -0.00    -0.01   0.00   0.00     0.00  -0.00  -0.69
     3   6    -0.00  -0.04  -0.00    -0.04   0.00   0.00    -0.00   0.00   0.09
     4   1     0.00  -0.12  -0.26     0.50   0.00   0.00    -0.00   0.02   0.05
     5   1     0.27   0.34   0.13     0.03   0.27  -0.23     0.01  -0.01   0.05
     6   1    -0.27   0.34   0.13     0.03  -0.27   0.23    -0.01  -0.01   0.05
     7   6    -0.00  -0.04   0.00    -0.04   0.00  -0.00    -0.00   0.00  -0.09
     8   1     0.00  -0.12   0.26     0.50   0.00  -0.00    -0.00   0.02  -0.05
     9   1    -0.27   0.34  -0.13     0.03  -0.27  -0.23    -0.01  -0.01  -0.05
    10   1     0.27   0.34  -0.13     0.03   0.27   0.23     0.01  -0.01  -0.05
                     19                     20                     21
                     A2"                    A1'                    E'
 Frequencies --   3031.9969              3032.1549              3094.3451
 Red. masses --      1.0350                 1.0347                 1.1014
 Frc consts  --      5.6059                 5.6048                 6.2137
 IR Inten    --     70.5201                 0.0000                30.5597
  Atom  AN      X      Y      Z        X      Y      Z        X      Y      Z
     1   6     0.00  -0.00   0.00    -0.00   0.00  -0.00    -0.00   0.00   0.00
     2   6    -0.00   0.00   0.00    -0.00   0.00   0.00    -0.00   0.00  -0.00
     3   6    -0.00   0.00   0.04    -0.00   0.00   0.03    -0.07   0.00  -0.00
     4   1     0.00   0.38  -0.14    -0.00   0.38  -0.14    -0.02  -0.00   0.00
     5   1     0.33  -0.19  -0.14     0.33  -0.19  -0.14     0.40  -0.24  -0.18
     6   1    -0.33  -0.19  -0.14    -0.33  -0.19  -0.14     0.40   0.24   0.18
     7   6     0.00  -0.00   0.04    -0.00   0.00  -0.03    -0.07   0.00   0.00
     8   1     0.00  -0.38  -0.14    -0.00   0.38   0.14    -0.02  -0.00  -0.00
     9   1     0.33   0.19  -0.14    -0.33  -0.19   0.14     0.40   0.24  -0.18
    10   1    -0.33   0.19  -0.14     0.33  -0.19   0.14     0.40  -0.24   0.18
                     22                     23                     24
                     E'                     E"                     E"
 Frequencies --   3094.3452              3094.9509              3094.9509
 Red. masses --      1.1014                 1.1015                 1.1015
 Frc consts  --      6.2137                 6.2164                 6.2164
 IR Inten    --     30.5593                 0.0000                 0.0000
  Atom  AN      X      Y      Z        X      Y      Z        X      Y      Z
     1   6    -0.00  -0.00  -0.00     0.00  -0.00  -0.00     0.00   0.00   0.00
     2   6    -0.00  -0.00   0.00    -0.00   0.00  -0.00    -0.00  -0.00   0.00
     3   6    -0.00  -0.07  -0.00    -0.07   0.00  -0.00    -0.00  -0.07  -0.00
     4   1    -0.00   0.54  -0.21    -0.02  -0.00   0.00    -0.00   0.54  -0.21
     5   1    -0.24   0.12   0.10     0.40  -0.24  -0.18    -0.24   0.12   0.10
     6   1     0.24   0.12   0.10     0.40   0.24   0.18     0.24   0.12   0.10
     7   6    -0.00  -0.07   0.00     0.07  -0.00  -0.00     0.00   0.07  -0.00
     8   1    -0.00   0.54   0.21     0.02   0.00   0.00     0.00  -0.54  -0.21
     9   1     0.24   0.12  -0.10    -0.40  -0.24   0.18    -0.24  -0.12   0.10
    10   1    -0.24   0.12  -0.10    -0.40   0.24  -0.18     0.24  -0.12   0.10

 -------------------
 - Thermochemistry -
 -------------------
 Temperature   298.150 Kelvin.  Pressure   1.00000 Atm.
 Atom     1 has atomic number  6 and mass  12.00000
 Atom     2 has atomic number  6 and mass  12.00000
 Atom     3 has atomic number  6 and mass  12.00000
 Atom     4 has atomic number  1 and mass   1.00783
 Atom     5 has atomic number  1 and mass   1.00783
 Atom     6 has atomic number  1 and mass   1.00783
 Atom     7 has atomic number  6 and mass  12.00000
 Atom     8 has atomic number  1 and mass   1.00783
 Atom     9 has atomic number  1 and mass   1.00783
 Atom    10 has atomic number  1 and mass   1.00783
 Molecular mass:    54.04695 amu.
 Principal axes and moments of inertia in atomic units:
                           1         2         3
     Eigenvalues --    22.49760 539.25470 539.25470
           X           -0.00000  -0.26159   0.96518
           Y            0.00000   0.96518   0.26159
           Z            1.00000  -0.00000   0.00000
 This molecule is a prolate symmetric top.
 Rotational symmetry number  6.
 Rotational temperatures (Kelvin)      3.84992     0.16062     0.16062
 Rotational constants (GHZ):          80.21926     3.34673     3.34673
 Zero-point vibrational energy     221164.2 (Joules/Mol)
                                   52.85950 (Kcal/Mol)
 Warning -- explicit consideration of   5 degrees of freedom as
           vibrations may cause significant error
 Vibrational temperatures:     20.47   298.68   298.68   543.04   543.04
          (Kelvin)           1050.25  1504.99  1504.99  1540.65  1540.65
                             1694.64  2051.75  2058.85  2148.02  2148.02
                             2148.24  2148.24  3421.68  4362.37  4362.59
                             4452.07  4452.07  4452.94  4452.94
 
 Zero-point correction=                           0.084237 (Hartree/Particle)
 Thermal correction to Energy=                    0.090014
 Thermal correction to Enthalpy=                  0.090958
 Thermal correction to Gibbs Free Energy=         0.056771
 Sum of electronic and zero-point Energies=           -155.903103
 Sum of electronic and thermal Energies=              -155.897326
 Sum of electronic and thermal Enthalpies=            -155.896382
 Sum of electronic and thermal Free Energies=         -155.930569
 
                     E (Thermal)             CV                S
                      KCal/Mol        Cal/Mol-Kelvin    Cal/Mol-Kelvin
 Total                   56.485             17.409             71.953
 Electronic               0.000              0.000              0.000
 Translational            0.889              2.981             37.884
 Rotational               0.889              2.981             19.836
 Vibrational             54.707             11.447             14.233
 Vibration     1          0.593              1.986              7.311
 Vibration     2          0.641              1.829              2.065
 Vibration     3          0.641              1.829              2.065
 Vibration     4          0.748              1.518              1.049
 Vibration     5          0.748              1.518              1.049
                       Q            Log10(Q)             Ln(Q)
 Total Bot       0.771112D-26        -26.112883        -60.127135
 Total V=0       0.429937D+13         12.633405         29.089490
 Vib (Bot)       0.102318D-36        -36.990050        -85.172737
 Vib (Bot)    1  0.145644D+02          1.163293          2.678581
 Vib (Bot)    2  0.957660D+00         -0.018789         -0.043263
 Vib (Bot)    3  0.957659D+00         -0.018789         -0.043263
 Vib (Bot)    4  0.479897D+00         -0.318852         -0.734184
 Vib (Bot)    5  0.479897D+00         -0.318852         -0.734184
 Vib (V=0)       0.570477D+02          1.756238          4.043888
 Vib (V=0)    1  0.150730D+02          1.178199          2.712904
 Vib (V=0)    2  0.158033D+01          0.198748          0.457634
 Vib (V=0)    3  0.158033D+01          0.198748          0.457633
 Vib (V=0)    4  0.119304D+01          0.076654          0.176503
 Vib (V=0)    5  0.119304D+01          0.076654          0.176503
 Electronic      0.100000D+01          0.000000          0.000000
 Translational   0.156175D+08          7.193611         16.563901
 Rotational      0.482566D+04          3.683556          8.481702
                           ----------------------------
                           ! Normal Mode     1        !
 --------------------------                            --------------------------
 ! Name  Definition              Value          Relative Weight (%)             !
 --------------------------------------------------------------------------------
 ! R1    R(1,2)                  0.0                     0.0                    !
 ! R2    R(1,7)                  0.0                     0.0                    !
 ! R3    R(2,3)                  0.0                     0.0                    !
 ! R4    R(3,4)                  0.0                     0.0                    !
 ! R5    R(3,5)                  0.0                     0.0                    !
 ! R6    R(3,6)                  0.0                     0.0                    !
 ! R7    R(7,8)                  0.0                     0.0                    !
 ! R8    R(7,9)                  0.0                     0.0                    !
 ! R9    R(7,10)                 0.0                     0.0                    !
 ! A1    A(2,3,4)                0.0                     0.0                    !
 ! A2    A(2,3,5)                0.0                     0.0                    !
 ! A3    A(2,3,6)                0.0                     0.0                    !
 ! A4    A(4,3,5)                0.0                     0.0                    !
 ! A5    A(4,3,6)                0.0                     0.0                    !
 ! A6    A(5,3,6)                0.0                     0.0                    !
 ! A7    A(1,7,8)                0.0                     0.0                    !
 ! A8    A(1,7,9)                0.0                     0.0                    !
 ! A9    A(1,7,10)               0.0                     0.0                    !
 ! A10   A(8,7,9)                0.0                     0.0                    !
 ! A11   A(8,7,10)               0.0                     0.0                    !
 ! A12   A(9,7,10)               0.0                     0.0                    !
 ! A13   L(2,1,7,8,-1)           0.0                     0.0                    !
 ! A14   L(1,2,3,4,-1)           0.0                     0.0                    !
 ! A15   L(2,1,7,8,-2)           0.0                     0.0                    !
 ! A16   L(1,2,3,4,-2)           0.0                     0.0                    !
 ! D1    D(4,3,6,5)              0.0                     0.0                    !
 ! D2    D(4,3,7,8)              0.4233                 11.1                    !
 ! D3    D(4,3,7,9)              0.4233                 11.1                    !
 ! D4    D(4,3,7,10)             0.4233                 11.1                    !
 ! D5    D(5,3,7,8)              0.4233                 11.1                    !
 ! D6    D(5,3,7,9)              0.4233                 11.1                    !
 ! D7    D(5,3,7,10)             0.4233                 11.1                    !
 ! D8    D(6,3,7,8)              0.4233                 11.1                    !
 ! D9    D(6,3,7,9)              0.4233                 11.1                    !
 ! D10   D(6,3,7,10)             0.4233                 11.1                    !
 ! D11   D(8,7,10,9)             0.0                     0.0                    !
 --------------------------------------------------------------------------------
                           ----------------------------
                           ! Normal Mode     2        !
 --------------------------                            --------------------------
 ! Name  Definition              Value          Relative Weight (%)             !
 --------------------------------------------------------------------------------
 ! R1    R(1,2)                  0.0                     0.0                    !
 ! R2    R(1,7)                  0.0                     0.0                    !
 ! R3    R(2,3)                  0.0                     0.0                    !
 ! R4    R(3,4)                 -0.001                   0.1                    !
 ! R5    R(3,5)                  0.0005                  0.1                    !
 ! R6    R(3,6)                  0.0005                  0.1                    !
 ! R7    R(7,8)                 -0.001                   0.1                    !
 ! R8    R(7,9)                  0.0005                  0.1                    !
 ! R9    R(7,10)                 0.0005                  0.1                    !
 ! A1    A(2,3,4)                0.0293                  3.3                    !
 ! A2    A(2,3,5)               -0.0147                  1.7                    !
 ! A3    A(2,3,6)               -0.0147                  1.7                    !
 ! A4    A(4,3,5)                0.0007                  0.1                    !
 ! A5    A(4,3,6)                0.0007                  0.1                    !
 ! A6    A(5,3,6)               -0.0014                  0.2                    !
 ! A7    A(1,7,8)                0.0293                  3.3                    !
 ! A8    A(1,7,9)               -0.0147                  1.7                    !
 ! A9    A(1,7,10)              -0.0147                  1.7                    !
 ! A10   A(8,7,9)                0.0007                  0.1                    !
 ! A11   A(8,7,10)               0.0007                  0.1                    !
 ! A12   A(9,7,10)              -0.0014                  0.2                    !
 ! A13   L(2,1,7,8,-1)           0.1427                 16.1                    !
 ! A14   L(1,2,3,4,-1)           0.1427                 16.1                    !
 ! A15   L(2,1,7,8,-2)           0.0                     0.0                    !
 ! A16   L(1,2,3,4,-2)           0.0                     0.0                    !
 ! D1    D(4,3,6,5)              0.0005                  0.1                    !
 ! D2    D(4,3,7,8)              0.0                     0.0                    !
 ! D3    D(4,3,7,9)              0.0592                  6.7                    !
 ! D4    D(4,3,7,10)            -0.0592                  6.7                    !
 ! D5    D(5,3,7,8)              0.0592                  6.7                    !
 ! D6    D(5,3,7,9)              0.1183                 13.3                    !
 ! D7    D(5,3,7,10)             0.0                     0.0                    !
 ! D8    D(6,3,7,8)             -0.0592                  6.7                    !
 ! D9    D(6,3,7,9)              0.0                     0.0                    !
 ! D10   D(6,3,7,10)            -0.1183                 13.3                    !
 ! D11   D(8,7,10,9)             0.0005                  0.1                    !
 --------------------------------------------------------------------------------
                           ----------------------------
                           ! Normal Mode     3        !
 --------------------------                            --------------------------
 ! Name  Definition              Value          Relative Weight (%)             !
 --------------------------------------------------------------------------------
 ! R1    R(1,2)                  0.0                     0.0                    !
 ! R2    R(1,7)                  0.0                     0.0                    !
 ! R3    R(2,3)                  0.0                     0.0                    !
 ! R4    R(3,4)                  0.0                     0.0                    !
 ! R5    R(3,5)                 -0.0009                  0.1                    !
 ! R6    R(3,6)                  0.0009                  0.1                    !
 ! R7    R(7,8)                  0.0                     0.0                    !
 ! R8    R(7,9)                  0.0009                  0.1                    !
 ! R9    R(7,10)                -0.0009                  0.1                    !
 ! A1    A(2,3,4)                0.0                     0.0                    !
 ! A2    A(2,3,5)                0.0254                  2.3                    !
 ! A3    A(2,3,6)               -0.0254                  2.3                    !
 ! A4    A(4,3,5)                0.0012                  0.1                    !
 ! A5    A(4,3,6)               -0.0012                  0.1                    !
 ! A6    A(5,3,6)                0.0                     0.0                    !
 ! A7    A(1,7,8)                0.0                     0.0                    !
 ! A8    A(1,7,9)               -0.0254                  2.3                    !
 ! A9    A(1,7,10)               0.0254                  2.3                    !
 ! A10   A(8,7,9)               -0.0012                  0.1                    !
 ! A11   A(8,7,10)               0.0012                  0.1                    !
 ! A12   A(9,7,10)               0.0                     0.0                    !
 ! A13   L(2,1,7,8,-1)           0.0                     0.0                    !
 ! A14   L(1,2,3,4,-1)           0.0                     0.0                    !
 ! A15   L(2,1,7,8,-2)          -0.2966                 26.6                    !
 ! A16   L(1,2,3,4,-2)           0.2966                 26.6                    !
 ! D1    D(4,3,6,5)              0.0008                  0.1                    !
 ! D2    D(4,3,7,8)              0.0                     0.0                    !
 ! D3    D(4,3,7,9)             -0.1025                  9.2                    !
 ! D4    D(4,3,7,10)            -0.1025                  9.2                    !
 ! D5    D(5,3,7,8)              0.1025                  9.2                    !
 ! D6    D(5,3,7,9)              0.0                     0.0                    !
 ! D7    D(5,3,7,10)             0.0                     0.0                    !
 ! D8    D(6,3,7,8)              0.1025                  9.2                    !
 ! D9    D(6,3,7,9)              0.0                     0.0                    !
 ! D10   D(6,3,7,10)             0.0                     0.0                    !
 ! D11   D(8,7,10,9)            -0.0008                  0.1                    !
 --------------------------------------------------------------------------------
                           ----------------------------
                           ! Normal Mode     4        !
 --------------------------                            --------------------------
 ! Name  Definition              Value          Relative Weight (%)             !
 --------------------------------------------------------------------------------
 ! R1    R(1,2)                  0.0                     0.0                    !
 ! R2    R(1,7)                  0.0                     0.0                    !
 ! R3    R(2,3)                  0.0                     0.0                    !
 ! R4    R(3,4)                  0.0                     0.0                    !
 ! R5    R(3,5)                  0.0015                  0.1                    !
 ! R6    R(3,6)                 -0.0015                  0.1                    !
 ! R7    R(7,8)                  0.0                     0.0                    !
 ! R8    R(7,9)                  0.0015                  0.1                    !
 ! R9    R(7,10)                -0.0015                  0.1                    !
 ! A1    A(2,3,4)                0.0                     0.0                    !
 ! A2    A(2,3,5)               -0.0559                  1.9                    !
 ! A3    A(2,3,6)                0.0559                  1.9                    !
 ! A4    A(4,3,5)               -0.0018                  0.1                    !
 ! A5    A(4,3,6)                0.0018                  0.1                    !
 ! A6    A(5,3,6)                0.0                     0.0                    !
 ! A7    A(1,7,8)                0.0                     0.0                    !
 ! A8    A(1,7,9)               -0.0559                  1.9                    !
 ! A9    A(1,7,10)               0.0559                  1.9                    !
 ! A10   A(8,7,9)               -0.0018                  0.1                    !
 ! A11   A(8,7,10)               0.0018                  0.1                    !
 ! A12   A(9,7,10)               0.0                     0.0                    !
 ! A13   L(2,1,7,8,-1)           0.0                     0.0                    !
 ! A14   L(1,2,3,4,-1)           0.0                     0.0                    !
 ! A15   L(2,1,7,8,-2)          -0.9916                 34.5                    !
 ! A16   L(1,2,3,4,-2)          -0.9916                 34.5                    !
 ! D1    D(4,3,6,5)             -0.0012                  0.0                    !
 ! D2    D(4,3,7,8)              0.1628                  5.7                    !
 ! D3    D(4,3,7,9)              0.0407                  1.4                    !
 ! D4    D(4,3,7,10)             0.0407                  1.4                    !
 ! D5    D(5,3,7,8)              0.0407                  1.4                    !
 ! D6    D(5,3,7,9)             -0.0814                  2.8                    !
 ! D7    D(5,3,7,10)            -0.0814                  2.8                    !
 ! D8    D(6,3,7,8)              0.0407                  1.4                    !
 ! D9    D(6,3,7,9)             -0.0814                  2.8                    !
 ! D10   D(6,3,7,10)            -0.0814                  2.8                    !
 ! D11   D(8,7,10,9)            -0.0012                  0.0                    !
 --------------------------------------------------------------------------------
                           ----------------------------
                           ! Normal Mode     5        !
 --------------------------                            --------------------------
 ! Name  Definition              Value          Relative Weight (%)             !
 --------------------------------------------------------------------------------
 ! R1    R(1,2)                  0.0                     0.0                    !
 ! R2    R(1,7)                  0.0                     0.0                    !
 ! R3    R(2,3)                  0.0                     0.0                    !
 ! R4    R(3,4)                  0.0017                  0.1                    !
 ! R5    R(3,5)                 -0.0009                  0.0                    !
 ! R6    R(3,6)                 -0.0009                  0.0                    !
 ! R7    R(7,8)                 -0.0017                  0.1                    !
 ! R8    R(7,9)                  0.0009                  0.0                    !
 ! R9    R(7,10)                 0.0009                  0.0                    !
 ! A1    A(2,3,4)               -0.0646                  3.6                    !
 ! A2    A(2,3,5)                0.0323                  1.8                    !
 ! A3    A(2,3,6)                0.0323                  1.8                    !
 ! A4    A(4,3,5)               -0.0011                  0.1                    !
 ! A5    A(4,3,6)               -0.0011                  0.1                    !
 ! A6    A(5,3,6)                0.0021                  0.1                    !
 ! A7    A(1,7,8)                0.0646                  3.6                    !
 ! A8    A(1,7,9)               -0.0323                  1.8                    !
 ! A9    A(1,7,10)              -0.0323                  1.8                    !
 ! A10   A(8,7,9)                0.0011                  0.1                    !
 ! A11   A(8,7,10)               0.0011                  0.1                    !
 ! A12   A(9,7,10)              -0.0021                  0.1                    !
 ! A13   L(2,1,7,8,-1)           0.4771                 26.6                    !
 ! A14   L(1,2,3,4,-1)          -0.4771                 26.6                    !
 ! A15   L(2,1,7,8,-2)           0.0                     0.0                    !
 ! A16   L(1,2,3,4,-2)           0.0                     0.0                    !
 ! D1    D(4,3,6,5)             -0.0007                  0.0                    !
 ! D2    D(4,3,7,8)              0.0                     0.0                    !
 ! D3    D(4,3,7,9)              0.0705                  3.9                    !
 ! D4    D(4,3,7,10)            -0.0705                  3.9                    !
 ! D5    D(5,3,7,8)             -0.0705                  3.9                    !
 ! D6    D(5,3,7,9)              0.0                     0.0                    !
 ! D7    D(5,3,7,10)            -0.141                   7.9                    !
 ! D8    D(6,3,7,8)              0.0705                  3.9                    !
 ! D9    D(6,3,7,9)              0.141                   7.9                    !
 ! D10   D(6,3,7,10)             0.0                     0.0                    !
 ! D11   D(8,7,10,9)             0.0007                  0.0                    !
 --------------------------------------------------------------------------------
                           ----------------------------
                           ! Normal Mode     6        !
 --------------------------                            --------------------------
 ! Name  Definition              Value          Relative Weight (%)             !
 --------------------------------------------------------------------------------
 ! R1    R(1,2)                 -0.1019                 12.4                    !
 ! R2    R(1,7)                 -0.2898                 35.3                    !
 ! R3    R(2,3)                 -0.2898                 35.3                    !
 ! R4    R(3,4)                  0.0001                  0.0                    !
 ! R5    R(3,5)                  0.0001                  0.0                    !
 ! R6    R(3,6)                  0.0001                  0.0                    !
 ! R7    R(7,8)                  0.0001                  0.0                    !
 ! R8    R(7,9)                  0.0001                  0.0                    !
 ! R9    R(7,10)                 0.0001                  0.0                    !
 ! A1    A(2,3,4)               -0.0082                  1.0                    !
 ! A2    A(2,3,5)               -0.0082                  1.0                    !
 ! A3    A(2,3,6)               -0.0082                  1.0                    !
 ! A4    A(4,3,5)                0.0087                  1.1                    !
 ! A5    A(4,3,6)                0.0087                  1.1                    !
 ! A6    A(5,3,6)                0.0087                  1.1                    !
 ! A7    A(1,7,8)               -0.0082                  1.0                    !
 ! A8    A(1,7,9)               -0.0082                  1.0                    !
 ! A9    A(1,7,10)              -0.0082                  1.0                    !
 ! A10   A(8,7,9)                0.0087                  1.1                    !
 ! A11   A(8,7,10)               0.0087                  1.1                    !
 ! A12   A(9,7,10)               0.0087                  1.1                    !
 ! A13   L(2,1,7,8,-1)           0.0                     0.0                    !
 ! A14   L(1,2,3,4,-1)           0.0                     0.0                    !
 ! A15   L(2,1,7,8,-2)           0.0                     0.0                    !
 ! A16   L(1,2,3,4,-2)           0.0                     0.0                    !
 ! D1    D(4,3,6,5)              0.0189                  2.3                    !
 ! D2    D(4,3,7,8)              0.0                     0.0                    !
 ! D3    D(4,3,7,9)              0.0                     0.0                    !
 ! D4    D(4,3,7,10)             0.0                     0.0                    !
 ! D5    D(5,3,7,8)              0.0                     0.0                    !
 ! D6    D(5,3,7,9)              0.0                     0.0                    !
 ! D7    D(5,3,7,10)             0.0                     0.0                    !
 ! D8    D(6,3,7,8)              0.0                     0.0                    !
 ! D9    D(6,3,7,9)              0.0                     0.0                    !
 ! D10   D(6,3,7,10)             0.0                     0.0                    !
 ! D11   D(8,7,10,9)             0.0189                  2.3                    !
 --------------------------------------------------------------------------------
                           ----------------------------
                           ! Normal Mode     7        !
 --------------------------                            --------------------------
 ! Name  Definition              Value          Relative Weight (%)             !
 --------------------------------------------------------------------------------
 ! R1    R(1,2)                  0.0                     0.0                    !
 ! R2    R(1,7)                  0.0                     0.0                    !
 ! R3    R(2,3)                  0.0                     0.0                    !
 ! R4    R(3,4)                  0.0                     0.0                    !
 ! R5    R(3,5)                 -0.0068                  0.2                    !
 ! R6    R(3,6)                  0.0068                  0.2                    !
 ! R7    R(7,8)                  0.0                     0.0                    !
 ! R8    R(7,9)                 -0.0068                  0.2                    !
 ! R9    R(7,10)                 0.0068                  0.2                    !
 ! A1    A(2,3,4)                0.0                     0.0                    !
 ! A2    A(2,3,5)                0.2861                  7.6                    !
 ! A3    A(2,3,6)               -0.2861                  7.6                    !
 ! A4    A(4,3,5)                0.0934                  2.5                    !
 ! A5    A(4,3,6)               -0.0933                  2.5                    !
 ! A6    A(5,3,6)                0.0                     0.0                    !
 ! A7    A(1,7,8)                0.0                     0.0                    !
 ! A8    A(1,7,9)                0.2861                  7.6                    !
 ! A9    A(1,7,10)              -0.2861                  7.6                    !
 ! A10   A(8,7,9)                0.0933                  2.5                    !
 ! A11   A(8,7,10)              -0.0934                  2.5                    !
 ! A12   A(9,7,10)               0.0                     0.0                    !
 ! A13   L(2,1,7,8,-1)           0.0                     0.0                    !
 ! A14   L(1,2,3,4,-1)           0.0                     0.0                    !
 ! A15   L(2,1,7,8,-2)          -0.2914                  7.7                    !
 ! A16   L(1,2,3,4,-2)          -0.2914                  7.7                    !
 ! D1    D(4,3,6,5)              0.0617                  1.6                    !
 ! D2    D(4,3,7,8)             -0.3842                 10.1                    !
 ! D3    D(4,3,7,9)             -0.0961                  2.5                    !
 ! D4    D(4,3,7,10)            -0.096                   2.5                    !
 ! D5    D(5,3,7,8)             -0.096                   2.5                    !
 ! D6    D(5,3,7,9)              0.1921                  5.1                    !
 ! D7    D(5,3,7,10)             0.1921                  5.1                    !
 ! D8    D(6,3,7,8)             -0.0961                  2.5                    !
 ! D9    D(6,3,7,9)              0.1921                  5.1                    !
 ! D10   D(6,3,7,10)             0.1921                  5.1                    !
 ! D11   D(8,7,10,9)             0.0617                  1.6                    !
 --------------------------------------------------------------------------------
                           ----------------------------
                           ! Normal Mode     8        !
 --------------------------                            --------------------------
 ! Name  Definition              Value          Relative Weight (%)             !
 --------------------------------------------------------------------------------
 ! R1    R(1,2)                  0.0                     0.0                    !
 ! R2    R(1,7)                  0.0                     0.0                    !
 ! R3    R(2,3)                  0.0                     0.0                    !
 ! R4    R(3,4)                  0.0079                  0.2                    !
 ! R5    R(3,5)                 -0.0039                  0.1                    !
 ! R6    R(3,6)                 -0.0039                  0.1                    !
 ! R7    R(7,8)                 -0.0079                  0.2                    !
 ! R8    R(7,9)                  0.0039                  0.1                    !
 ! R9    R(7,10)                 0.0039                  0.1                    !
 ! A1    A(2,3,4)               -0.3303                  9.5                    !
 ! A2    A(2,3,5)                0.1652                  4.8                    !
 ! A3    A(2,3,6)                0.1651                  4.8                    !
 ! A4    A(4,3,5)               -0.0539                  1.6                    !
 ! A5    A(4,3,6)               -0.0539                  1.6                    !
 ! A6    A(5,3,6)                0.1078                  3.1                    !
[...]
      9  -0.239896D+00  0.000000D+00  0.000000D+00  0.000000D+00  0.000000D+00
     10   0.000000D+00  0.000000D+00  0.000000D+00  0.000000D+00  0.000000D+00
     11   0.000000D+00  0.000000D+00  0.000000D+00  0.000000D+00  0.000000D+00
     12   0.000000D+00  0.000000D+00  0.000000D+00  0.000000D+00  0.000000D+00
                26            27            28            29            30 
      1  -0.270116D+00  0.518442D+00  0.518442D+00  0.518442D+00 -0.259221D+00
      2   0.155951D+00  0.000000D+00  0.000000D+00  0.000000D+00 -0.448984D+00
      3   0.398883D+00  0.000000D+00  0.000000D+00  0.000000D+00  0.000000D+00
      4   0.351452D+00 -0.618622D+00 -0.543487D+00 -0.543487D+00  0.234176D+00
      5   0.202911D+00  0.000000D+00 -0.433791D-01  0.433791D-01  0.492363D+00
      6  -0.103799D+01  0.000000D+00  0.000000D+00  0.000000D+00  0.000000D+00
      7  -0.813358D-01  0.618622D+00 -0.234176D+00 -0.234176D+00  0.543487D+00
      8  -0.469592D-01  0.000000D+00  0.492363D+00 -0.492363D+00 -0.433791D-01
      9   0.240219D+00  0.000000D+00  0.000000D+00  0.000000D+00  0.000000D+00
     10   0.000000D+00 -0.518442D+00  0.259221D+00  0.259221D+00 -0.518442D+00
     11  -0.311903D+00  0.000000D+00 -0.448984D+00  0.448984D+00  0.000000D+00
     12   0.398883D+00  0.000000D+00  0.000000D+00  0.000000D+00  0.000000D+00
                31            32            33            34            35 
      1  -0.259221D+00 -0.259221D+00 -0.259221D+00 -0.259221D+00 -0.259221D+00
      2  -0.448984D+00 -0.448984D+00  0.448984D+00  0.448984D+00  0.448984D+00
      3   0.000000D+00  0.000000D+00  0.000000D+00  0.000000D+00  0.000000D+00
      4   0.309311D+00  0.309311D+00  0.234176D+00  0.309311D+00  0.309311D+00
      5   0.448984D+00  0.535742D+00 -0.492363D+00 -0.535742D+00 -0.448984D+00
      6   0.000000D+00  0.000000D+00  0.000000D+00  0.000000D+00  0.000000D+00
      7  -0.309311D+00 -0.309311D+00  0.543487D+00 -0.309311D+00 -0.309311D+00
      8   0.448984D+00 -0.535742D+00  0.433791D-01  0.535742D+00 -0.448984D+00
      9   0.000000D+00  0.000000D+00  0.000000D+00  0.000000D+00  0.000000D+00
     10   0.259221D+00  0.259221D+00 -0.518442D+00  0.259221D+00  0.259221D+00
     11  -0.448984D+00  0.448984D+00  0.000000D+00 -0.448984D+00  0.448984D+00
     12   0.000000D+00  0.000000D+00  0.000000D+00  0.000000D+00  0.000000D+00
                36 
      1   0.270116D+00
      2   0.155951D+00
      3  -0.398883D+00
      4  -0.351452D+00
      5   0.202911D+00
      6   0.103799D+01
      7   0.813358D-01
      8  -0.469592D-01
      9  -0.240219D+00
     10   0.000000D+00
     11  -0.311903D+00
     12  -0.398883D+00
 Iteration  1 RMS(Cart)=  0.00009873 RMS(Int)=  0.00000001
 Iteration  2 RMS(Cart)=  0.00000000 RMS(Int)=  0.00000000
 Input Coordinates in SymCor: 
                 1             2             3             4             5 
      1   0.000000D+00  0.000000D+00  0.000000D+00  0.000000D+00  0.167048D+01
      2   0.000000D+00  0.000000D+00  0.000000D+00  0.192891D+01 -0.964454D+00
      3   0.114252D+01 -0.114252D+01 -0.390251D+01 -0.465660D+01 -0.465660D+01
                 6             7             8             9            10 
      1  -0.167048D+01  0.000000D+00  0.000000D+00 -0.167048D+01  0.167048D+01
      2  -0.964454D+00  0.000000D+00  0.192891D+01 -0.964454D+00 -0.964454D+00
      3  -0.465660D+01  0.390251D+01  0.465660D+01  0.465660D+01  0.465660D+01
 Symmetrized Coordinates in SymCor: 
                 1             2             3             4             5 
      1   0.000000D+00  0.000000D+00  0.000000D+00  0.000000D+00  0.167048D+01
      2   0.000000D+00  0.000000D+00  0.000000D+00  0.192891D+01 -0.964455D+00
      3   0.114252D+01 -0.114252D+01 -0.390251D+01 -0.465660D+01 -0.465660D+01
                 6             7             8             9            10 
      1  -0.167048D+01  0.000000D+00  0.000000D+00 -0.167048D+01  0.167048D+01
      2  -0.964455D+00  0.000000D+00  0.192891D+01 -0.964455D+00 -0.964455D+00
      3  -0.465660D+01  0.390251D+01  0.465660D+01  0.465660D+01  0.465660D+01
 Final Coordinates in SymCor: 
                 1             2             3             4             5 
      1   0.000000D+00  0.000000D+00  0.000000D+00  0.000000D+00  0.167048D+01
      2   0.000000D+00  0.000000D+00  0.000000D+00  0.192891D+01 -0.964454D+00
      3   0.114252D+01 -0.114252D+01 -0.390251D+01 -0.465660D+01 -0.465660D+01
                 6             7             8             9            10 
      1  -0.167048D+01  0.000000D+00  0.000000D+00 -0.167048D+01  0.167048D+01
      2  -0.964454D+00  0.000000D+00  0.192891D+01 -0.964454D+00 -0.964454D+00
      3  -0.465660D+01  0.390251D+01  0.465660D+01  0.465660D+01  0.465660D+01
 ClnCor:  largest displacement from symmetrization is 9.67D-09 for atom    10.
 Variable       Old X    -DE/DX   Delta X   Delta X   Delta X     New X
                                 (Linear)    (Quad)   (Total)
    R1        2.28505  -0.00002   0.00000  -0.00002  -0.00002   2.28503
    R2        2.76016  -0.00006   0.00000  -0.00017  -0.00017   2.76000
    R3        2.76016  -0.00006   0.00000  -0.00017  -0.00017   2.76000
    R4        2.07104   0.00001   0.00000   0.00004   0.00004   2.07107
    R5        2.07104   0.00001   0.00000   0.00004   0.00004   2.07107
    R6        2.07104   0.00001   0.00000   0.00004   0.00004   2.07107
    R7        2.07104   0.00001   0.00000   0.00004   0.00004   2.07107
    R8        2.07104   0.00001   0.00000   0.00004   0.00004   2.07107
    R9        2.07104   0.00001   0.00000   0.00004   0.00004   2.07107
    A1        1.94349  -0.00000   0.00000  -0.00003  -0.00003   1.94347
    A2        1.94349  -0.00000   0.00000  -0.00003  -0.00003   1.94347
    A3        1.94349  -0.00000   0.00000  -0.00003  -0.00003   1.94347
    A4        1.87666   0.00000   0.00000   0.00003   0.00003   1.87668
    A5        1.87666   0.00001   0.00000   0.00003   0.00003   1.87668
    A6        1.87666   0.00001   0.00000   0.00003   0.00003   1.87668
    A7        1.94349  -0.00000   0.00000  -0.00003  -0.00003   1.94347
    A8        1.94349  -0.00000   0.00000  -0.00003  -0.00003   1.94347
    A9        1.94349  -0.00000   0.00000  -0.00003  -0.00003   1.94347
   A10        1.87666   0.00000   0.00000   0.00003   0.00003   1.87668
   A11        1.87666   0.00001   0.00000   0.00003   0.00003   1.87668
   A12        1.87666   0.00001   0.00000   0.00003   0.00003   1.87668
   A13        3.14159   0.00000   0.00000  -0.00000   0.00000   3.14159
   A14        3.14159   0.00000   0.00000  -0.00000   0.00000   3.14159
   A15        3.14159   0.00000   0.00000   0.00000   0.00000   3.14159
   A16        3.14159   0.00000   0.00000   0.00000   0.00000   3.14159
    D1        2.01623   0.00001   0.00000   0.00006   0.00006   2.01629
    D2       -0.00000   0.00000   0.00000  -0.00000   0.00000   0.00000
    D3        2.09440   0.00000   0.00000  -0.00000   0.00000   2.09440
    D4       -2.09440   0.00000   0.00000  -0.00000   0.00000  -2.09440
    D5        2.09440   0.00000   0.00000  -0.00000   0.00000   2.09440
    D6       -2.09440  -0.00000   0.00000   0.00000   0.00000  -2.09440
    D7       -0.00000  -0.00000   0.00000   0.00000   0.00000   0.00000
    D8       -2.09440   0.00000   0.00000  -0.00000   0.00000  -2.09440
    D9       -0.00000  -0.00000   0.00000   0.00000   0.00000   0.00000
   D10        2.09440  -0.00000   0.00000   0.00000   0.00000   2.09440
   D11        2.01623   0.00001   0.00000   0.00006   0.00006   2.01629
         Item               Value     Threshold  Converged?
 Maximum Force            0.000062     0.000450     YES
 RMS     Force            0.000016     0.000300     YES
 Maximum Displacement     0.000213     0.001800     YES
 RMS     Displacement     0.000099     0.001200     YES
 Predicted change in Energy=-1.290661D-08
 Optimization completed.
    -- Stationary point found.
                           ----------------------------
                           !   Optimized Parameters   !
                           ! (Angstroms and Degrees)  !
 --------------------------                            --------------------------
 ! Name  Definition              Value          Derivative Info.                !
 --------------------------------------------------------------------------------
 ! R1    R(1,2)                  1.2092         -DE/DX =    0.0                 !
 ! R2    R(1,7)                  1.4606         -DE/DX =   -0.0001              !
 ! R3    R(2,3)                  1.4606         -DE/DX =   -0.0001              !
 ! R4    R(3,4)                  1.0959         -DE/DX =    0.0                 !
 ! R5    R(3,5)                  1.0959         -DE/DX =    0.0                 !
 ! R6    R(3,6)                  1.0959         -DE/DX =    0.0                 !
 ! R7    R(7,8)                  1.0959         -DE/DX =    0.0                 !
 ! R8    R(7,9)                  1.0959         -DE/DX =    0.0                 !
 ! R9    R(7,10)                 1.0959         -DE/DX =    0.0                 !
 ! A1    A(2,3,4)              111.354          -DE/DX =    0.0                 !
 ! A2    A(2,3,5)              111.354          -DE/DX =    0.0                 !
 ! A3    A(2,3,6)              111.354          -DE/DX =    0.0                 !
 ! A4    A(4,3,5)              107.5246         -DE/DX =    0.0                 !
 ! A5    A(4,3,6)              107.5246         -DE/DX =    0.0                 !
 ! A6    A(5,3,6)              107.5246         -DE/DX =    0.0                 !
 ! A7    A(1,7,8)              111.354          -DE/DX =    0.0                 !
 ! A8    A(1,7,9)              111.354          -DE/DX =    0.0                 !
 ! A9    A(1,7,10)             111.354          -DE/DX =    0.0                 !
 ! A10   A(8,7,9)              107.5246         -DE/DX =    0.0                 !
 ! A11   A(8,7,10)             107.5246         -DE/DX =    0.0                 !
 ! A12   A(9,7,10)             107.5246         -DE/DX =    0.0                 !
 ! A13   L(2,1,7,8,-1)         180.0            -DE/DX =    0.0                 !
 ! A14   L(1,2,3,4,-1)         180.0            -DE/DX =    0.0                 !
 ! A15   L(2,1,7,8,-2)         180.0            -DE/DX =    0.0                 !
 ! A16   L(1,2,3,4,-2)         180.0            -DE/DX =    0.0                 !
 ! D1    D(4,3,6,5)            115.5215         -DE/DX =    0.0                 !
 ! D2    D(4,3,7,8)              0.0            -DE/DX =    0.0                 !
 ! D3    D(4,3,7,9)            120.0            -DE/DX =    0.0                 !
 ! D4    D(4,3,7,10)          -120.0            -DE/DX =    0.0                 !
 ! D5    D(5,3,7,8)            120.0            -DE/DX =    0.0                 !
 ! D6    D(5,3,7,9)           -120.0            -DE/DX =    0.0                 !
 ! D7    D(5,3,7,10)             0.0            -DE/DX =    0.0                 !
 ! D8    D(6,3,7,8)           -120.0            -DE/DX =    0.0                 !
 ! D9    D(6,3,7,9)              0.0            -DE/DX =    0.0                 !
 ! D10   D(6,3,7,10)           120.0            -DE/DX =    0.0                 !
 ! D11   D(8,7,10,9)           115.5215         -DE/DX =    0.0                 !
 --------------------------------------------------------------------------------
 GradGradGradGradGradGradGradGradGradGradGradGradGradGradGradGradGradGrad

 Leave Link  103 at Sat Aug 10 22:42:08 2019, MaxMem=  4294967296 cpu:               0.7 elap:               0.1
 Dipole is zero, so no output in dipole orientation.

 ----------------------------------------------------------------------

 Electric dipole moment (input orientation):
 (Debye = 10**-18 statcoulomb cm , SI units = C m)
                  (au)            (Debye)         (10**-30 SI)
   Tot        0.000000D+00      0.000000D+00      0.000000D+00
   x          0.000000D+00      0.000000D+00      0.000000D+00
   y          0.000000D+00      0.000000D+00      0.000000D+00
   z          0.000000D+00      0.000000D+00      0.000000D+00

 Dipole polarizability, Alpha (input orientation).
 (esu units = cm**3 , SI units = C**2 m**2 J**-1)
 Alpha(0;0):
               (au)            (10**-24 esu)      (10**-40 SI)
   iso        0.405627D+02      0.601078D+01      0.668789D+01
   aniso      0.375905D+02      0.557034D+01      0.619783D+01
   xx         0.280326D+02      0.415400D+01      0.462195D+01
   yx         0.000000D+00      0.000000D+00      0.000000D+00
   yy         0.280326D+02      0.415400D+01      0.462195D+01
   zx         0.000000D+00      0.000000D+00      0.000000D+00
   zy         0.000000D+00      0.000000D+00      0.000000D+00
   zz         0.656231D+02      0.972434D+01      0.108198D+02

 ----------------------------------------------------------------------

 Test job not archived.
 1\1\NSC-N129\Freq\RB3LYP\6-31G(d,p)\C4H6\X_KJEJO\10-Aug-2019\0\\# freq
 =(modredundant,intmodes) iop(1/33=3) b3lyp/6-31g(d,p) iop(7/75=-1)\\na
 me\\0,1\C,0.,0.0000000667,0.604598\C,0.,0.0000000667,-0.604598\C,0.,0.
 0000000667,-2.065214\H,0.,1.020707,-2.46428\H,0.8839581341,-0.5103534,
 -2.46428\H,-0.8839581341,-0.5103534,-2.46428\C,0.,0.0000000667,2.06521
 4\H,0.,1.020707,2.46428\H,-0.8839581341,-0.5103534,2.46428\H,0.8839581
 341,-0.5103534,2.46428\\Version=ES64L-G16RevB.01\State=1-A1'\HF=-155.9
 873398\RMSD=1.088e-09\RMSF=1.857e-05\ZeroPoint=0.084237\Thermal=0.0900
 141\Dipole=0.,0.,0.\DipoleDeriv=-0.1344466,0.,0.,0.,-0.1344463,0.00000
 09,0.,-0.0000016,-0.0472089,-0.1344466,0.,0.,0.,-0.1344463,-0.0000009,
 0.,0.0000016,-0.0472089,0.1335503,0.,0.,0.,0.1335477,0.0000022,0.,0.00
 00013,0.2484835,0.0824925,0.,0.,0.,-0.0818939,0.08697,0.,0.0526702,-0.
 0670912,-0.0407977,0.0711816,0.07532,0.0711815,0.0413961,-0.0434855,0.
 0456141,-0.0263351,-0.0670914,-0.0407977,-0.0711816,-0.07532,-0.071181
 5,0.0413961,-0.0434855,-0.0456141,-0.0263351,-0.0670914,0.1335503,0.,0
 .,0.,0.1335477,-0.0000022,0.,-0.0000013,0.2484835,0.0824925,0.,0.,0.,-
 0.0818939,-0.08697,0.,-0.0526702,-0.0670912,-0.0407977,-0.0711816,0.07
 532,-0.0711815,0.0413961,0.0434855,0.0456141,0.0263351,-0.0670914,-0.0
 407977,0.0711816,-0.07532,0.0711815,0.0413961,0.0434855,-0.0456141,0.0
 263351,-0.0670914\Polar=28.0325766,0.,28.0325921,0.,0.,65.6230744\Quad
 rupole=-1.5467758,-1.5467758,3.0935516,0.,0.,0.\PG=D03H [C3(C1C1.C1C1)
 ,3SGV(H2)]\NImag=0\\0.08459533,0.,0.08459531,0.,-0.00000009,1.44069402
 ,-0.03037443,0.,0.,0.08459533,0.,-0.03037444,-0.00000009,0.,0.08459531
 ,0.,0.00000009,-1.08774231,0.,0.00000009,1.44069402,0.00127457,0.,0.,-
 0.06401856,0.,0.,0.53966055,0.,0.00127458,0.00000007,0.,-0.06401859,-0
 .00000031,0.,0.53966064,0.,0.00000006,-0.00883559,0.,0.00000005,-0.284
 45997,0.,0.00000011,0.51962668,0.00081915,0.,0.,-0.00101104,0.,0.,-0.0
 4586042,0.,0.,0.04491706,0.,-0.00018298,-0.00221232,0.,0.00605695,0.00
 419511,0.,-0.27725964,0.08378556,0.,0.29902607,0.,-0.00024406,0.000646
 88,0.,0.03176772,-0.02053235,0.,0.08628207,-0.07613642,0.,-0.09438037,
 0.08823417,0.00006755,0.00043395,-0.00191595,0.00428995,-0.00306052,0.
 00363305,-0.21940979,0.10019876,0.07256047,0.00060575,-0.00074262,-0.0
 0136776,0.23549881,0.00043394,0.00056862,0.00110617,-0.00306052,0.0007
 5596,-0.00209750,0.10019879,-0.10371019,-0.04189283,0.02558303,-0.0137
 3587,-0.01082296,-0.11003243,0.10844431,-0.00021136,0.00012202,0.00064
 691,0.02751166,-0.01588387,-0.02053232,0.07472244,-0.04314101,-0.07613
 647,-0.01005684,0.00422697,0.00429404,-0.08173580,0.04719019,0.0882341
 7,0.00006755,-0.00043395,0.00191595,0.00428995,0.00306052,-0.00363305,
 -0.21940979,-0.10019876,-0.07256047,0.00060575,0.00074262,0.00136776,-
 0.02090668,-0.01316282,-0.00868908,0.23549881,-0.00043394,0.00056862,0
 .00110617,0.00306052,0.00075596,-0.00209750,-0.10019879,-0.10371019,-0
 .04189283,-0.02558303,-0.01373587,-0.01082296,0.01316282,0.00777656,0.
 00659600,0.11003243,0.10844431,0.00021136,0.00012202,0.00064691,-0.027
 51166,-0.01588387,-0.02053232,-0.07472244,-0.04314101,-0.07613647,0.01
 005684,0.00422697,0.00429404,0.00868908,0.00659600,0.00429404,0.081735
 80,0.04719019,0.08823417,-0.06401856,0.,0.,0.00127457,0.,0.,0.00807856
 ,0.,0.,-0.00014428,0.,0.,-0.00008547,-0.00003396,-0.00179730,-0.000085
 47,0.00003396,0.00179730,0.53966055,0.,-0.06401859,0.00000031,0.,0.001
 27458,-0.00000007,0.,0.00807853,-0.00000003,0.,-0.00006586,-0.00207535
 ,-0.00003396,-0.00012467,0.00103767,0.00003396,-0.00012467,0.00103767,
 0.,0.53966064,0.,-0.00000005,-0.28445997,0.,-0.00000006,-0.00883559,0.
 ,0.00000003,0.00224944,0.,0.00016715,-0.00005704,0.00014475,-0.0000835
 7,-0.00005704,-0.00014475,-0.00008357,-0.00005704,0.,-0.00000011,0.519
 62668,-0.00101104,0.,0.,0.00081915,0.,0.,-0.00014428,0.,0.,0.00007623,
 0.,0.,-0.00000410,0.00005071,0.00011682,-0.00000410,-0.00005071,-0.000
 11682,-0.04586042,0.,0.,0.04491706,0.,0.00605695,-0.00419511,0.,-0.000
 18298,0.00221232,0.,-0.00006586,-0.00016715,0.,-0.00005570,0.00006539,
 -0.00001703,-0.00002354,-0.00002816,0.00001703,-0.00002354,-0.00002816
 ,0.,-0.27725964,-0.08378556,0.,0.29902607,0.,-0.03176772,-0.02053235,0
 .,0.00024406,0.00064688,0.,0.00207535,-0.00005704,0.,-0.00006539,-0.00
 081428,-0.00003403,-0.00011525,0.00003549,0.00003403,-0.00011525,0.000
 03549,0.,-0.08628207,-0.07613642,0.,0.09438037,0.08823417,0.00428995,0
 .00306052,0.00363305,0.00006755,-0.00043395,-0.00191595,-0.00008547,0.
 00003396,0.00014475,-0.00000410,0.00001703,-0.00003403,-0.00003327,-0.
 00003387,0.00008280,-0.00002272,-0.00005712,-0.00005663,-0.21940979,-0
 .10019876,0.07256047,0.00060575,0.00074262,-0.00136776,0.23549881,0.00
 306052,0.00075596,0.00209750,-0.00043394,0.00056862,-0.00110617,0.0000
 3396,-0.00012467,0.00008357,-0.00005071,-0.00002354,0.00011525,0.00003
 387,0.00000562,-0.00008709,-0.00005712,0.00004324,-0.00003269,-0.10019
 879,-0.10371019,0.04189283,-0.02558303,-0.01373587,0.01082296,0.110032
 43,0.10844431,0.02751166,0.01588387,-0.02053232,-0.00021136,-0.0001220
 2,0.00064691,-0.00179730,-0.00103767,-0.00005704,0.00011682,0.00002816
 ,0.00003549,0.00008280,0.00008709,0.00003549,0.00005663,0.00003269,-0.
 00081428,0.07472244,0.04314101,-0.07613647,-0.01005684,-0.00422697,0.0
 0429404,-0.08173580,-0.04719019,0.08823417,0.00428995,-0.00306052,-0.0
 0363305,0.00006755,0.00043395,0.00191595,-0.00008547,-0.00003396,-0.00
 014475,-0.00000410,-0.00001703,0.00003403,-0.00002272,0.00005712,0.000
 05663,-0.00003327,0.00003387,-0.00008280,-0.21940979,0.10019876,-0.072
 56047,0.00060575,-0.00074262,0.00136776,-0.02090668,0.01316282,-0.0086
 8908,0.23549881,-0.00306052,0.00075596,0.00209750,0.00043394,0.0005686
 2,-0.00110617,-0.00003396,-0.00012467,0.00008357,0.00005071,-0.0000235
 4,0.00011525,0.00005712,0.00004324,-0.00003269,-0.00003387,0.00000562,
 -0.00008709,0.10019879,-0.10371019,0.04189283,0.02558303,-0.01373587,0
 .01082296,-0.01316282,0.00777656,-0.00659600,-0.11003243,0.10844431,-0
 .02751166,0.01588387,-0.02053232,0.00021136,-0.00012202,0.00064691,0.0
 0179730,-0.00103767,-0.00005704,-0.00011682,0.00002816,0.00003549,-0.0
 0005663,0.00003269,-0.00081428,-0.00008280,0.00008709,0.00003549,-0.07
 472244,0.04314101,-0.07613647,0.01005684,-0.00422697,0.00429404,0.0086
 8908,-0.00659600,0.00429404,0.08173580,-0.04719019,0.08823417\\0.,0.,-
 0.00004202,0.,0.,0.00004202,0.,0.,-0.00005377,0.,-0.00001287,-0.000002
 68,-0.00001114,0.00000643,-0.00000268,0.00001114,0.00000643,-0.0000026
 8,0.,0.,0.00005377,0.,-0.00001287,0.00000268,0.00001114,0.00000643,0.0
 0000268,-0.00001114,0.00000643,0.00000268\\\@


 YOU WILL NEVER "FIND" TIME FOR ANYTHING.
 IF YOU WANT TIME, YOU MUST MAKE IT.

                        -- CHARLES BIXTON
 Job cpu time:       0 days  0 hours  1 minutes  8.0 seconds.
 Elapsed time:       0 days  0 hours  0 minutes  5.1 seconds.
 File lengths (MBytes):  RWF=     10 Int=      0 D2E=      0 Chk=     16 Scr=      1
 Normal termination of Gaussian 16 at Sat Aug 10 22:42:09 2019.
