 Entering Gaussian System, Link 0=/software/sse/easybuild/prefix/software/Gaussian/16.B.01-avx2-nsc1-bdist/g16/g16.orig
 Input=freq-hp.wrap
 Output=freq-hp.log
 Initial command:
 /software/sse/easybuild/prefix/software/Gaussian/16.B.01-avx2-nsc1-bdist/g16/l1.exe "/scratch/local/Gau-427016.inp" -scrdir="/scratch/local/"
 Default is to use a total of  16 processors:
                               16 via shared-memory
                                1 via Linda
 Entering Link 1 = /software/sse/easybuild/prefix/software/Gaussian/16.B.01-avx2-nsc1-bdist/g16/l1.exe PID=    427026.
  
 Copyright (c) 1988-2017, Gaussian, Inc.  All Rights Reserved.
  
 This is part of the Gaussian(R) 16 program.  It is based on
 the Gaussian(R) 09 system (copyright 2009, Gaussian, Inc.),
 the Gaussian(R) 03 system (copyright 2003, Gaussian, Inc.),
 the Gaussian(R) 98 system (copyright 1998, Gaussian, Inc.),
 the Gaussian(R) 94 system (copyright 1995, Gaussian, Inc.),
 the Gaussian 92(TM) system (copyright 1992, Gaussian, Inc.),
 the Gaussian 90(TM) system (copyright 1990, Gaussian, Inc.),
 the Gaussian 88(TM) system (copyright 1988, Gaussian, Inc.),
 the Gaussian 86(TM) system (copyright 1986, Carnegie Mellon
 University), and the Gaussian 82(TM) system (copyright 1983,
 Carnegie Mellon University). Gaussian is a federally registered
 trademark of Gaussian, Inc.
  
 This software contains proprietary and confidential information,
 including trade secrets, belonging to Gaussian, Inc.
  
 This software is provided under written license and may be
 used, copied, transmitted, or stored only in accord with that
 written license.
  
 The following legend is applicable only to US Government
 contracts under FAR:
  
                    RESTRICTED RIGHTS LEGEND
  
 Use, reproduction and disclosure by the US Government is
 subject to restrictions as set forth in subparagraphs (a)
 and (c) of the Commercial Computer Software - Restricted
 Rights clause in FAR 52.227-19.
  
 Gaussian, Inc.
 340 Quinnipiac St., Bldg. 40, Wallingford CT 06492
  
  
 ---------------------------------------------------------------
 Warning -- This program may not be used in any manner that
 competes with the business of Gaussian, Inc. or will provide
 assistance to any competitor of Gaussian, Inc.  The licensee
 of this program is prohibited from giving any competitor of
 Gaussian, Inc. access to this program.  By using this program,
 the user acknowledges that Gaussian, Inc. is engaged in the
 business of creating and licensing software in the field of
 computational chemistry and represents and warrants to the
 licensee that it is not a competitor of Gaussian, Inc. and that
 it will not use this program in any manner prohibited above.
 ---------------------------------------------------------------
  

 Cite this work as:
 Gaussian 16, Revision B.01,
 M. J. Frisch, G. W. Trucks, H. B. Schlegel, G. E. Scuseria, 
 M. A. Robb, J. R. Cheeseman, G. Scalmani, V. Barone, 
 G. A. Petersson, H. Nakatsuji, X. Li, M. Caricato, A. V. Marenich, 
 J. Bloino, B. G. Janesko, R. Gomperts, B. Mennucci, H. P. Hratchian, 
 J. V. Ortiz, A. F. Izmaylov, J. L. Sonnenberg, D. Williams-Young, 
 F. Ding, F. Lipparini, F. Egidi, J. Goings, B. Peng, A. Petrone, 
 T. Henderson, D. Ranasinghe, V. G. Zakrzewski, J. Gao, N. Rega, 
 G. Zheng, W. Liang, M. Hada, M. Ehara, K. Toyota, R. Fukuda, 
 J. Hasegawa, M. Ishida, T. Nakajima, Y. Honda, O. Kitao, H. Nakai, 
 T. Vreven, K. Throssell, J. A. Montgomery, Jr., J. E. Peralta, 
 F. Ogliaro, M. J. Bearpark, J. J. Heyd, E. N. Brothers, K. N. Kudin, 
 V. N. Staroverov, T. A. Keith, R. Kobayashi, J. Normand, 
 K. Raghavachari, A. P. Rendell, J. C. Burant, S. S. Iyengar, 
 J. Tomasi, M. Cossi, J. M. Millam, M. Klene, C. Adamo, R. Cammi, 
 J. W. Ochterski, R. L. Martin, K. Morokuma, O. Farkas, 
 J. B. Foresman, and D. J. Fox, Gaussian, Inc., Wallingford CT, 2016.
 
 ******************************************
 Gaussian 16:  ES64L-G16RevB.01 20-Dec-2017
                10-Aug-2019 
 ******************************************
 %chk=freq.chk
 ----------------------------------------------------------------------
 # freq(hpmodes,intmodes) iop(1/33=3) b3lyp/6-31g(d,p) geom=connectivit
 y iop(7/75=-1)
 ----------------------------------------------------------------------
 1/10=4,18=20,30=1,33=3,38=1,57=2/1,3;
 2/9=110,12=2,17=6,18=5,40=1/2;
 3/5=1,6=6,7=101,11=2,25=1,30=1,71=2,74=-5,140=1/1,2,3;
 4//1;
 5/5=2,38=5,98=1/2;
 8/6=4,10=90,11=11/1;
 11/6=1,8=1,9=11,15=111,16=1/1,2,10;
 10/6=1/2;
 6/7=2,8=2,9=2,10=2,28=1/1;
 7/8=31,10=1,25=1,75=-1/1,2,3,16;
 1/10=4,18=20,30=1,33=3/3;
 99//99;
 ONIOM results not found on unit 2.
 ----
 name
 ----
 TstMul:  ICh=     0
 TstMul:  Mul=     1
 TstMul:  ICh=     0
 TstMul:  Mul=     1
 Symbolic Z-matrix:
 Charge =  0 Multiplicity = 1
 C                     0.        0.        0.66504 
 H                     0.        0.92341   1.238 
 H                     0.       -0.92341   1.238 
 C                     0.        0.       -0.66504 
 H                     0.       -0.92341  -1.238 
 H                     0.        0.92341  -1.238 
 
 RdStrC is calling ZToCFu for IStruc=1 NZ=     6.
                                ZToCFu                                
 ---------------------------------------------------------------------
 Center     Atomic      Atomic             Coordinates (Angstroms)
 Number     Number       Type             X           Y           Z
 ---------------------------------------------------------------------
      1          6           0        0.000000    0.000000    0.665036
      2          1           0        0.000000    0.923410    1.237996
      3          1           0        0.000000   -0.923410    1.237996
      4          6           0        0.000000    0.000000   -0.665036
      5          1           0        0.000000   -0.923410   -1.237996
      6          1           0        0.000000    0.923410   -1.237996
 ---------------------------------------------------------------------
 Connectivity in DoCon:
 I=     1 IAn=  6 IBond, RBType=     2  1.00     3  1.00     4  2.00
 I=     2 IAn=  1 IBond, RBType=     1  1.00
 I=     3 IAn=  1 IBond, RBType=     1  1.00
 I=     4 IAn=  6 IBond, RBType=     1  2.00     5  1.00     6  1.00
 I=     5 IAn=  1 IBond, RBType=     4  1.00
 I=     6 IAn=  1 IBond, RBType=     4  1.00
 After GenITR:
 ITRead=  0  0  0  0  0  0
 MicOpt= -1 -1 -1 -1 -1 -1
 List IsCon N=      6 M=      2:
 I=      1 Vals=      2      1 |      3      1 |      4      2 |
 I=      2 Vals=      1      1 |
 I=      3 Vals=      1      1 |
 I=      4 Vals=      1      2 |      5      1 |      6      1 |
 I=      5 Vals=      4      1 |
 I=      6 Vals=      4      1 |
 Coordinate R1 contains atom 1 which is already in QM block.
 Coordinate R1 contains atom 2 which is already in QM block.
 Coordinate R2 contains atom 1 which is already in QM block.
 Coordinate R2 contains atom 3 which is already in QM block.
 Coordinate R3 contains atom 1 which is already in QM block.
 Coordinate R3 contains atom 4 which is already in QM block.
 Coordinate R4 contains atom 4 which is already in QM block.
 Coordinate R4 contains atom 5 which is already in QM block.
 Coordinate R5 contains atom 4 which is already in QM block.
 Coordinate R5 contains atom 6 which is already in QM block.
 Coordinate A1 contains atom 2 which is already in QM block.
 Coordinate A1 contains atom 1 which is already in QM block.
 Coordinate A1 contains atom 1 which is already in QM block.
 Coordinate A2 contains atom 2 which is already in QM block.
 Coordinate A2 contains atom 1 which is already in QM block.
 Coordinate A2 contains atom 1 which is already in QM block.
 Coordinate A3 contains atom 3 which is already in QM block.
 Coordinate A3 contains atom 1 which is already in QM block.
 Coordinate A3 contains atom 1 which is already in QM block.
 Coordinate A4 contains atom 1 which is already in QM block.
 Coordinate A4 contains atom 4 which is already in QM block.
 Coordinate A4 contains atom 4 which is already in QM block.
 Coordinate A5 contains atom 1 which is already in QM block.
 Coordinate A5 contains atom 4 which is already in QM block.
 Coordinate A5 contains atom 4 which is already in QM block.
 Coordinate A6 contains atom 5 which is already in QM block.
 Coordinate A6 contains atom 4 which is already in QM block.
 Coordinate A6 contains atom 4 which is already in QM block.
 Coordinate D1 contains atom 2 which is already in QM block.
 Coordinate D1 contains atom 1 which is already in QM block.
 Coordinate D1 contains atom 4 which is already in QM block.
 Coordinate D1 contains atom 5 which is already in QM block.
 Coordinate D2 contains atom 2 which is already in QM block.
 Coordinate D2 contains atom 1 which is already in QM block.
 Coordinate D2 contains atom 4 which is already in QM block.
 Coordinate D2 contains atom 6 which is already in QM block.
 Coordinate D3 contains atom 3 which is already in QM block.
 Coordinate D3 contains atom 1 which is already in QM block.
 Coordinate D3 contains atom 4 which is already in QM block.
 Coordinate D3 contains atom 5 which is already in QM block.
 Coordinate D4 contains atom 3 which is already in QM block.
 Coordinate D4 contains atom 1 which is already in QM block.
 Coordinate D4 contains atom 4 which is already in QM block.
 Coordinate D4 contains atom 6 which is already in QM block.
 Saved connectivity
 I=     1 IAn=  6 IBond, RBType=     2  1.00     3  1.00     4  2.00
 I=     2 IAn=  1 IBond, RBType=     1  1.00
 I=     3 IAn=  1 IBond, RBType=     1  1.00
 I=     4 IAn=  6 IBond, RBType=     1  2.00     5  1.00     6  1.00
 I=     5 IAn=  1 IBond, RBType=     4  1.00
 I=     6 IAn=  1 IBond, RBType=     4  1.00
 ITRead=  0  0  0  0  0  0
 MicOpt= -1 -1 -1 -1 -1 -1
 NAtoms=      6 NQM=        6 NQMF=       0 NMMI=      0 NMMIF=      0
                NMic=       0 NMicF=      0.
 No MM parameters found.
 Leave Link  101 at Sat Aug 10 16:32:46 2019, MaxMem=  4294967296 cpu:               5.5 elap:               0.4

 GradGradGradGradGradGradGradGradGradGradGradGradGradGradGradGradGradGrad
 Berny optimization.
 GetPCM: File not found, return IValue=0.
 Optmz: redundant internal coordinate code flag= 1
 Initialization pass.
                           ----------------------------
                           !    Initial Parameters    !
                           ! (Angstroms and Degrees)  !
 --------------------------                            --------------------------
 ! Name  Definition              Value          Derivative Info.                !
 --------------------------------------------------------------------------------
 ! R1    R(1,2)                  1.0867         calculate D2E/DX2 analytically  !
 ! R2    R(1,3)                  1.0867         calculate D2E/DX2 analytically  !
 ! R3    R(1,4)                  1.3301         calculate D2E/DX2 analytically  !
 ! R4    R(4,5)                  1.0867         calculate D2E/DX2 analytically  !
 ! R5    R(4,6)                  1.0867         calculate D2E/DX2 analytically  !
 ! A1    A(2,1,3)              116.3622         calculate D2E/DX2 analytically  !
 ! A2    A(2,1,4)              121.8189         calculate D2E/DX2 analytically  !
 ! A3    A(3,1,4)              121.8189         calculate D2E/DX2 analytically  !
 ! A4    A(1,4,5)              121.8189         calculate D2E/DX2 analytically  !
 ! A5    A(1,4,6)              121.8189         calculate D2E/DX2 analytically  !
 ! A6    A(5,4,6)              116.3622         calculate D2E/DX2 analytically  !
 ! D1    D(2,1,4,5)            180.0            calculate D2E/DX2 analytically  !
 ! D2    D(2,1,4,6)              0.0            calculate D2E/DX2 analytically  !
 ! D3    D(3,1,4,5)              0.0            calculate D2E/DX2 analytically  !
 ! D4    D(3,1,4,6)            180.0            calculate D2E/DX2 analytically  !
 --------------------------------------------------------------------------------
 Maximum allowed force set to 1.00D+20.
 Trust Radius=3.00D-01 FncErr=1.00D-07 GrdErr=1.00D-07 EigMax=2.50D+02 EigMin=1.00D-04
 Number of steps in this run=      2 maximum allowed number of steps=      2.
 GradGradGradGradGradGradGradGradGradGradGradGradGradGradGradGradGradGrad

 Leave Link  103 at Sat Aug 10 16:32:46 2019, MaxMem=  4294967296 cpu:               0.2 elap:               0.1
                          Input orientation:                          
 ---------------------------------------------------------------------
 Center     Atomic      Atomic             Coordinates (Angstroms)
 Number     Number       Type             X           Y           Z
 ---------------------------------------------------------------------
      1          6           0        0.000000    0.000000    0.665036
      2          1           0        0.000000    0.923410    1.237996
      3          1           0        0.000000   -0.923410    1.237996
      4          6           0        0.000000    0.000000   -0.665036
      5          1           0        0.000000   -0.923410   -1.237996
      6          1           0        0.000000    0.923410   -1.237996
 ---------------------------------------------------------------------
                    Distance matrix (angstroms):
                    1          2          3          4          5
     1  C    0.000000
     2  H    1.086724   0.000000
     3  H    1.086724   1.846820   0.000000
     4  C    1.330072   2.115234   2.115234   0.000000
     5  H    2.115234   3.088896   2.475992   1.086724   0.000000
     6  H    2.115234   2.475992   3.088896   1.086724   1.846820
                    6
     6  H    0.000000
 Stoichiometry    C2H4
 Framework group  D2H[C2"(C.C),SG(H4)]
 Deg. of freedom     3
 Full point group                 D2H     NOp   8
 Largest Abelian subgroup         D2H     NOp   8
 Largest concise Abelian subgroup D2      NOp   4
                         Standard orientation:                         
 ---------------------------------------------------------------------
 Center     Atomic      Atomic             Coordinates (Angstroms)
 Number     Number       Type             X           Y           Z
 ---------------------------------------------------------------------
      1          6           0        0.000000    0.000000    0.665036
      2          1           0        0.000000    0.923410    1.237996
      3          1           0       -0.000000   -0.923410    1.237996
      4          6           0        0.000000    0.000000   -0.665036
      5          1           0       -0.000000   -0.923410   -1.237996
      6          1           0        0.000000    0.923410   -1.237996
 ---------------------------------------------------------------------
 Rotational constants (GHZ):         147.0222004          30.0945208          24.9810556
 Standard basis: 6-31G(d,p) (6D, 7F)
 There are    12 symmetry adapted cartesian basis functions of AG  symmetry.
 There are     2 symmetry adapted cartesian basis functions of B1G symmetry.
 There are     4 symmetry adapted cartesian basis functions of B2G symmetry.
 There are     7 symmetry adapted cartesian basis functions of B3G symmetry.
 There are     2 symmetry adapted cartesian basis functions of AU  symmetry.
 There are    12 symmetry adapted cartesian basis functions of B1U symmetry.
 There are     7 symmetry adapted cartesian basis functions of B2U symmetry.
 There are     4 symmetry adapted cartesian basis functions of B3U symmetry.
 There are    12 symmetry adapted basis functions of AG  symmetry.
 There are     2 symmetry adapted basis functions of B1G symmetry.
 There are     4 symmetry adapted basis functions of B2G symmetry.
 There are     7 symmetry adapted basis functions of B3G symmetry.
 There are     2 symmetry adapted basis functions of AU  symmetry.
 There are    12 symmetry adapted basis functions of B1U symmetry.
 There are     7 symmetry adapted basis functions of B2U symmetry.
 There are     4 symmetry adapted basis functions of B3U symmetry.
    50 basis functions,    84 primitive gaussians,    50 cartesian basis functions
     8 alpha electrons        8 beta electrons
       nuclear repulsion energy        33.3568797114 Hartrees.
 NAtoms=    6 NActive=    6 NUniq=    2 SFac= 4.00D+00 NAtFMM=   60 NAOKFM=F Big=F
 Integral buffers will be    131072 words long.
 Raffenetti 2 integral format.
 Two-electron integral symmetry is turned on.
 One-electron integrals computed using PRISM.
 NBasis=    50 RedAO= T EigKep=  6.92D-03  NBF=    12     2     4     7     2    12     7     4
 NBsUse=    50 1.00D-06 EigRej= -1.00D+00 NBFU=    12     2     4     7     2    12     7     4
 ExpMin= 1.61D-01 ExpMax= 3.05D+03 ExpMxC= 4.57D+02 IAcc=3 IRadAn=         5 AccDes= 0.00D+00
 Harris functional with IExCor=  402 and IRadAn=       5 diagonalized for initial guess.
 HarFok:  IExCor=  402 AccDes= 0.00D+00 IRadAn=         5 IDoV= 1 UseB2=F ITyADJ=14
 ICtDFT=  3500011 ScaDFX=  1.000000  1.000000  1.000000  1.000000
 FoFCou: FMM=F IPFlag=           0 FMFlag=      100000 FMFlg1=           0
         NFxFlg=           0 DoJE=T BraDBF=F KetDBF=T FulRan=T
         wScrn=  0.000000 ICntrl=       500 IOpCl=  0 I1Cent=   200000004 NGrid=           0
         NMat0=    1 NMatS0=      1 NMatT0=    0 NMatD0=    1 NMtDS0=    0 NMtDT0=    0
 Petite list used in FoFCou.
 Initial guess orbital symmetries:
       Occupied  (AG) (B1U) (AG) (B1U) (B2U) (AG) (B3G) (B3U)
       Virtual   (B2G) (B2U) (AG) (B1U) (B3G) (B1U) (AG) (B3U)
                 (B2U) (B2G) (B1U) (AG) (B3G) (B2U) (B1U) (AG)
                 (B1U) (B3G) (B3U) (B1G) (AU) (AG) (B2U) (AG) (B1U)
                 (B3G) (B2G) (B2U) (B3U) (B1G) (B1U) (B2G) (B3G)
                 (AU) (AG) (B1U) (AG) (B2U) (B1U) (B3G) (AG) (B1U)
 The electronic state of the initial guess is 1-AG.
 Keep R1 ints in memory in symmetry-blocked form, NReq=14783010.
 Requested convergence on RMS density matrix=1.00D-08 within 128 cycles.
 Requested convergence on MAX density matrix=1.00D-06.
 Requested convergence on             energy=1.00D-06.
 No special actions if energy rises.
 Integral accuracy reduced to 1.0D-05 until final iterations.
 Initial convergence to 1.0D-05 achieved.  Increase integral accuracy.
 SCF Done:  E(RB3LYP) =  -78.5938079589     A.U. after    9 cycles
            NFock=  9  Conv=0.76D-09     -V/T= 2.0105
 DoSCS=F DFT=T ScalE2(SS,OS)=  1.000000  1.000000
 Range of M.O.s used for correlation:     1    50
 NBasis=    50 NAE=     8 NBE=     8 NFC=     0 NFV=     0
 NROrb=     50 NOA=     8 NOB=     8 NVA=    42 NVB=    42
 Symmetrizing basis deriv contribution to polar:
 IMax=3 JMax=2 DiffMx= 0.00D+00
 G2DrvN: will do     7 centers at a time, making    1 passes.
 Calling FoFCou, ICntrl=  3107 FMM=F I1Cent=   0 AccDes= 0.00D+00.
 End of G2Drv F.D. properties file   721 does not exist.
 End of G2Drv F.D. properties file   722 does not exist.
 End of G2Drv F.D. properties file   788 does not exist.
          IDoAtm=111111
          Differentiating once with respect to electric field.
                with respect to dipole field.
          Differentiating once with respect to nuclear coordinates.
 Keep R1 ints in memory in symmetry-blocked form, NReq=14732433.
          There are     9 degrees of freedom in the 1st order CPHF.  IDoFFX=4 NUNeed=     9.
      9 vectors produced by pass  0 Test12= 3.73D-15 1.11D-08 XBig12= 3.18D+01 4.82D+00.
 AX will form     9 AO Fock derivatives at one time.
      9 vectors produced by pass  1 Test12= 3.73D-15 1.11D-08 XBig12= 7.77D+00 1.18D+00.
      9 vectors produced by pass  2 Test12= 3.73D-15 1.11D-08 XBig12= 1.66D-01 1.38D-01.
      9 vectors produced by pass  3 Test12= 3.73D-15 1.11D-08 XBig12= 6.16D-04 1.26D-02.
      9 vectors produced by pass  4 Test12= 3.73D-15 1.11D-08 XBig12= 4.67D-06 7.97D-04.
      7 vectors produced by pass  5 Test12= 3.73D-15 1.11D-08 XBig12= 4.82D-09 2.06D-05.
      2 vectors produced by pass  6 Test12= 3.73D-15 1.11D-08 XBig12= 4.90D-12 5.31D-07.
      1 vectors produced by pass  7 Test12= 3.73D-15 1.11D-08 XBig12= 3.79D-15 1.53D-08.
 InvSVY:  IOpt=1 It=  1 EMax= 9.40D-16
 Solved reduced A of dimension    55 with     9 vectors.
 Isotropic polarizability for W=    0.000000       20.22 Bohr**3.
 End of Minotr F.D. properties file   721 does not exist.
 End of Minotr F.D. properties file   722 does not exist.
 End of Minotr F.D. properties file   788 does not exist.

 **********************************************************************

            Population analysis using the SCF Density.

 **********************************************************************

 Orbital symmetries:
       Occupied  (AG) (B1U) (AG) (B1U) (B2U) (AG) (B3G) (B3U)
       Virtual   (B2G) (AG) (B2U) (B1U) (B3G) (B1U) (AG) (B3U)
                 (B2U) (B2G) (AG) (B1U) (B2U) (B3G) (B1U) (AG)
                 (B1U) (B3G) (B1G) (B3U) (AU) (AG) (B2U) (AG) (B1U)
                 (B3G) (B2G) (B2U) (B3U) (B1G) (B1U) (B2G) (AU)
                 (B3G) (AG) (B1U) (AG) (B2U) (B1U) (B3G) (AG) (B1U)
 The electronic state is 1-AG.
 Alpha  occ. eigenvalues --  -10.18441 -10.18351  -0.75519  -0.57651  -0.46398
 Alpha  occ. eigenvalues --   -0.41579  -0.35180  -0.26747
 Alpha virt. eigenvalues --    0.01742   0.12235   0.14052   0.15811   0.24447
 Alpha virt. eigenvalues --    0.33135   0.47286   0.54824   0.56357   0.63742
 Alpha virt. eigenvalues --    0.65373   0.69921   0.83096   0.84450   0.91314
 Alpha virt. eigenvalues --    0.92166   1.10264   1.18868   1.38515   1.39108
 Alpha virt. eigenvalues --    1.52938   1.83790   1.88804   1.95891   2.03736
 Alpha virt. eigenvalues --    2.04251   2.12960   2.21375   2.36502   2.44602
 Alpha virt. eigenvalues --    2.50926   2.62268   2.67896   2.67992   2.75751
 Alpha virt. eigenvalues --    3.02289   3.16829   3.33746   3.46986   3.76869
 Alpha virt. eigenvalues --    4.17891   4.49563
          Condensed to atoms (all electrons):
               1          2          3          4          5          6
     1  C    4.817386   0.388068   0.388068   0.679417  -0.035265  -0.035265
     2  H    0.388068   0.595969  -0.045571  -0.035265   0.005417  -0.009822
     3  H    0.388068  -0.045571   0.595969  -0.035265  -0.009822   0.005417
     4  C    0.679417  -0.035265  -0.035265   4.817386   0.388068   0.388068
     5  H   -0.035265   0.005417  -0.009822   0.388068   0.595969  -0.045571
     6  H   -0.035265  -0.009822   0.005417   0.388068  -0.045571   0.595969
 Mulliken charges:
               1
     1  C   -0.202409
     2  H    0.101204
     3  H    0.101204
     4  C   -0.202409
     5  H    0.101204
     6  H    0.101204
 Sum of Mulliken charges =   0.00000
 Mulliken charges with hydrogens summed into heavy atoms:
               1
     1  C    0.000000
     4  C    0.000000
 APT charges:
               1
     1  C   -0.042427
     2  H    0.021213
     3  H    0.021213
     4  C   -0.042427
     5  H    0.021213
     6  H    0.021213
 Sum of APT charges =  -0.00000
 APT charges with hydrogens summed into heavy atoms:
               1
     1  C   -0.000000
     4  C   -0.000000
 Electronic spatial extent (au):  <R**2>=             82.1320
 Charge=             -0.0000 electrons
 Dipole moment (field-independent basis, Debye):
    X=             -0.0000    Y=              0.0000    Z=             -0.0000  Tot=              0.0000
 Quadrupole moment (field-independent basis, Debye-Ang):
   XX=            -14.9823   YY=            -12.1396   ZZ=            -12.0278
   XY=              0.0000   XZ=             -0.0000   YZ=              0.0000
 Traceless Quadrupole moment (field-independent basis, Debye-Ang):
   XX=             -1.9324   YY=              0.9103   ZZ=              1.0221
   XY=              0.0000   XZ=             -0.0000   YZ=              0.0000
 Octapole moment (field-independent basis, Debye-Ang**2):
  XXX=             -0.0000  YYY=             -0.0000  ZZZ=              0.0000  XYY=             -0.0000
  XXY=             -0.0000  XXZ=             -0.0000  XZZ=             -0.0000  YZZ=             -0.0000
  YYZ=             -0.0000  XYZ=             -0.0000
 Hexadecapole moment (field-independent basis, Debye-Ang**3):
 XXXX=            -15.4666 YYYY=            -26.4216 ZZZZ=            -66.8750 XXXY=             -0.0000
 XXXZ=              0.0000 YYYX=             -0.0000 YYYZ=              0.0000 ZZZX=              0.0000
 ZZZY=             -0.0000 XXYY=             -7.5732 XXZZ=            -14.5908 YYZZ=            -13.3061
 XXYZ=              0.0000 YYXZ=              0.0000 ZZXY=              0.0000
 N-N= 3.335687971144D+01 E-N=-2.481226885499D+02  KE= 7.778066548361D+01
 Symmetry AG   KE= 3.739430944467D+01
 Symmetry B1G  KE= 6.464624407161D-34
 Symmetry B2G  KE= 8.669219259582D-32
 Symmetry B3G  KE= 2.091091211045D+00
 Symmetry AU   KE= 1.001758938394D-33
 Symmetry B1U  KE= 3.433860370679D+01
 Symmetry B2U  KE= 1.872147779388D+00
 Symmetry B3U  KE= 2.084513341714D+00
  Exact polarizability:   8.899   0.000  20.698  -0.000  -0.000  31.071
 Approx polarizability:  11.743   0.000  25.780  -0.000  -0.000  47.448
 Calling FoFJK, ICntrl=    100127 FMM=F ISym2X=1 I1Cent= 0 IOpClX= 0 NMat=1 NMatS=1 NMatT=0.
 Full mass-weighted force constant matrix:
 Low frequencies ---   -9.9365   -0.0013   -0.0012   -0.0011    7.8477   28.5098
 Low frequencies ---  831.8743  961.5007  977.1504
 Diagonal vibrational polarizability:
        2.2330585       0.1044012       0.1144832
 Harmonic frequencies (cm**-1), IR intensities (KM/Mole), Raman scattering
 activities (A**4/AMU), depolarization ratios for plane and unpolarized
 incident light, reduced masses (AMU), force constants (mDyne/A),
 and normal coordinates:
                           1         2         3         4         5
                          B2U       B2G       B3U       AU        B3G
       Frequencies ---   831.8743  961.5007  977.1504 1069.6591 1241.6913
    Reduced masses ---     1.0427    1.5201    1.1607    1.0078    1.5261
   Force constants ---     0.4251    0.8280    0.6530    0.6794    1.3863
    IR Intensities ---     0.6558    0.0000   79.2300    0.0000    0.0000
 Coord Atom Element:
   1     1     6         -0.00000   0.15266  -0.08340  -0.00000   0.00000
   2     1     6          0.03983   0.00000   0.00000   0.00000   0.15354
   3     1     6         -0.00000  -0.00000   0.00000  -0.00000   0.00000
   1     2     1          0.00000  -0.48821   0.49651   0.50000  -0.00000
   2     2     1         -0.23713  -0.00000  -0.00000   0.00000  -0.14297
   3     2     1          0.43929   0.00000   0.00000  -0.00000   0.46666
   1     3     1         -0.00000  -0.48821   0.49651  -0.50000  -0.00000
   2     3     1         -0.23713  -0.00000   0.00000  -0.00000  -0.14297
   3     3     1         -0.43929  -0.00000  -0.00000   0.00000  -0.46666
   1     4     6          0.00000  -0.15266  -0.08340   0.00000  -0.00000
   2     4     6          0.03983   0.00000  -0.00000  -0.00000  -0.15354
   3     4     6          0.00000   0.00000  -0.00000  -0.00000   0.00000
   1     5     1         -0.00000   0.48821   0.49651   0.50000  -0.00000
   2     5     1         -0.23713   0.00000   0.00000   0.00000   0.14297
   3     5     1          0.43929   0.00000   0.00000  -0.00000  -0.46666
   1     6     1         -0.00000   0.48821   0.49651  -0.50000   0.00000
   2     6     1         -0.23713   0.00000   0.00000   0.00000   0.14297
   3     6     1         -0.43929  -0.00000  -0.00000   0.00000   0.46666
                           6         7         8         9        10
                          AG        B1U       AG        B1U       AG
       Frequencies ---  1388.6282 1483.2033 1715.4751 3144.2542 3160.0097
    Reduced masses ---     1.2137    1.1120    3.1902    1.0477    1.0748
   Force constants ---     1.3789    1.4413    5.5314    6.1027    6.3233
    IR Intensities ---     0.0000    5.5635    0.0000   17.0550    0.0000
 Coord Atom Element:
   1     1     6          0.00000   0.00000   0.00000  -0.00000  -0.00000
   2     1     6          0.00000   0.00000   0.00000  -0.00000   0.00000
   3     1     6          0.09677  -0.06884   0.31507  -0.04259  -0.05519
   1     2     1         -0.00000  -0.00000  -0.00000  -0.00000   0.00000
   2     2     1         -0.19702  -0.28228   0.38158   0.42990   0.42799
   3     2     1          0.45442   0.40982  -0.23401   0.25353   0.25553
   1     3     1         -0.00000  -0.00000  -0.00000   0.00000   0.00000
   2     3     1          0.19702   0.28228  -0.38158  -0.42990  -0.42799
   3     3     1          0.45442   0.40982  -0.23401   0.25353   0.25553
   1     4     6         -0.00000   0.00000  -0.00000   0.00000  -0.00000
   2     4     6          0.00000  -0.00000   0.00000   0.00000   0.00000
   3     4     6         -0.09677  -0.06884  -0.31507  -0.04259   0.05519
   1     5     1          0.00000  -0.00000   0.00000  -0.00000   0.00000
   2     5     1          0.19702  -0.28228  -0.38158   0.42990  -0.42799
   3     5     1         -0.45442   0.40982   0.23401   0.25353  -0.25553
   1     6     1          0.00000  -0.00000   0.00000   0.00000   0.00000
   2     6     1         -0.19702   0.28228   0.38158  -0.42990   0.42799
   3     6     1         -0.45442   0.40982   0.23401   0.25353  -0.25553
                          11        12
                          B3G       B2U
       Frequencies ---  3219.9425 3245.8766
    Reduced masses ---     1.1146    1.1177
   Force constants ---     6.8086    6.9379
    IR Intensities ---     0.0000   30.8881
 Coord Atom Element:
   1     1     6          0.00000   0.00000
   2     1     6         -0.06969  -0.07069
   3     1     6          0.00000  -0.00000
   1     2     1          0.00000  -0.00000
   2     2     1          0.42085   0.42083
   3     2     1          0.26544   0.26533
   1     3     1         -0.00000  -0.00000
   2     3     1          0.42085   0.42083
   3     3     1         -0.26544  -0.26533
   1     4     6         -0.00000   0.00000
   2     4     6          0.06969  -0.07069
   3     4     6          0.00000   0.00000
   1     5     1          0.00000  -0.00000
   2     5     1         -0.42085   0.42083
   3     5     1         -0.26544   0.26533
   1     6     1          0.00000  -0.00000
   2     6     1         -0.42085   0.42083
   3     6     1          0.26544  -0.26533
 Harmonic frequencies (cm**-1), IR intensities (KM/Mole), Raman scattering
 activities (A**4/AMU), depolarization ratios for plane and unpolarized
 incident light, reduced masses (AMU), force constants (mDyne/A),
 and normal coordinates:
                      1                      2                      3
                     B2U                    B2G                    B3U
 Frequencies --    831.8743               961.5007               977.1504
 Red. masses --      1.0427                 1.5201                 1.1607
 Frc consts  --      0.4251                 0.8280                 0.6530
 IR Inten    --      0.6558                 0.0000                79.2300
  Atom  AN      X      Y      Z        X      Y      Z        X      Y      Z
     1   6    -0.00   0.04  -0.00     0.15   0.00  -0.00    -0.08   0.00   0.00
     2   1     0.00  -0.24   0.44    -0.49  -0.00   0.00     0.50  -0.00   0.00
     3   1    -0.00  -0.24  -0.44    -0.49  -0.00  -0.00     0.50   0.00  -0.00
     4   6     0.00   0.04   0.00    -0.15   0.00   0.00    -0.08  -0.00  -0.00
     5   1    -0.00  -0.24   0.44     0.49   0.00   0.00     0.50   0.00   0.00
     6   1    -0.00  -0.24  -0.44     0.49   0.00  -0.00     0.50   0.00  -0.00
                      4                      5                      6
                     AU                     B3G                    AG
 Frequencies --   1069.6591              1241.6913              1388.6282
 Red. masses --      1.0078                 1.5261                 1.2137
 Frc consts  --      0.6794                 1.3863                 1.3789
 IR Inten    --      0.0000                 0.0000                 0.0000
  Atom  AN      X      Y      Z        X      Y      Z        X      Y      Z
     1   6    -0.00   0.00  -0.00     0.00   0.15   0.00     0.00   0.00   0.10
     2   1     0.50   0.00  -0.00    -0.00  -0.14   0.47    -0.00  -0.20   0.45
     3   1    -0.50  -0.00   0.00    -0.00  -0.14  -0.47    -0.00   0.20   0.45
     4   6     0.00  -0.00  -0.00    -0.00  -0.15   0.00    -0.00   0.00  -0.10
     5   1     0.50   0.00  -0.00    -0.00   0.14  -0.47     0.00   0.20  -0.45
     6   1    -0.50   0.00   0.00     0.00   0.14   0.47     0.00  -0.20  -0.45
                      7                      8                      9
                     B1U                    AG                     B1U
 Frequencies --   1483.2033              1715.4751              3144.2542
 Red. masses --      1.1120                 3.1902                 1.0477
 Frc consts  --      1.4413                 5.5314                 6.1027
 IR Inten    --      5.5635                 0.0000                17.0550
  Atom  AN      X      Y      Z        X      Y      Z        X      Y      Z
     1   6     0.00   0.00  -0.07     0.00   0.00   0.32    -0.00  -0.00  -0.04
     2   1    -0.00  -0.28   0.41    -0.00   0.38  -0.23    -0.00   0.43   0.25
     3   1    -0.00   0.28   0.41    -0.00  -0.38  -0.23     0.00  -0.43   0.25
     4   6     0.00  -0.00  -0.07    -0.00   0.00  -0.32     0.00   0.00  -0.04
     5   1    -0.00  -0.28   0.41     0.00  -0.38   0.23    -0.00   0.43   0.25
     6   1    -0.00   0.28   0.41     0.00   0.38   0.23     0.00  -0.43   0.25
                     10                     11                     12
                     AG                     B3G                    B2U
 Frequencies --   3160.0097              3219.9425              3245.8766
 Red. masses --      1.0748                 1.1146                 1.1177
 Frc consts  --      6.3233                 6.8086                 6.9379
 IR Inten    --      0.0000                 0.0000                30.8881
  Atom  AN      X      Y      Z        X      Y      Z        X      Y      Z
     1   6    -0.00   0.00  -0.06     0.00  -0.07   0.00     0.00  -0.07  -0.00
     2   1     0.00   0.43   0.26     0.00   0.42   0.27    -0.00   0.42   0.27
     3   1     0.00  -0.43   0.26    -0.00   0.42  -0.27    -0.00   0.42  -0.27
     4   6    -0.00   0.00   0.06    -0.00   0.07   0.00     0.00  -0.07   0.00
     5   1     0.00  -0.43  -0.26     0.00  -0.42  -0.27    -0.00   0.42   0.27
     6   1     0.00   0.43  -0.26     0.00  -0.42   0.27    -0.00   0.42  -0.27

 -------------------
 - Thermochemistry -
 -------------------
 Temperature   298.150 Kelvin.  Pressure   1.00000 Atm.
 Atom     1 has atomic number  6 and mass  12.00000
 Atom     2 has atomic number  1 and mass   1.00783
 Atom     3 has atomic number  1 and mass   1.00783
 Atom     4 has atomic number  6 and mass  12.00000
 Atom     5 has atomic number  1 and mass   1.00783
 Atom     6 has atomic number  1 and mass   1.00783
 Molecular mass:    28.03130 amu.
 Principal axes and moments of inertia in atomic units:
                           1         2         3
     Eigenvalues --    12.27530  59.96910  72.24439
           X            0.00000   0.00000   1.00000
           Y            0.00000   1.00000  -0.00000
           Z            1.00000  -0.00000   0.00000
 This molecule is an asymmetric top.
 Rotational symmetry number  4.
 Rotational temperatures (Kelvin)      7.05595     1.44431     1.19890
 Rotational constants (GHZ):         147.02220    30.09452    24.98106
 Zero-point vibrational energy     134216.6 (Joules/Mol)
                                   32.07854 (Kcal/Mol)
 Vibrational temperatures:   1196.88  1383.38  1405.90  1539.00  1786.52
          (Kelvin)           1997.93  2134.00  2468.19  4523.88  4546.55
                             4632.78  4670.09
 
 Zero-point correction=                           0.051120 (Hartree/Particle)
 Thermal correction to Energy=                    0.054163
 Thermal correction to Enthalpy=                  0.055107
 Thermal correction to Gibbs Free Energy=         0.030247
 Sum of electronic and zero-point Energies=            -78.542688
 Sum of electronic and thermal Energies=               -78.539645
 Sum of electronic and thermal Enthalpies=             -78.538701
 Sum of electronic and thermal Free Energies=          -78.563561
 
                     E (Thermal)             CV                S
                      KCal/Mol        Cal/Mol-Kelvin    Cal/Mol-Kelvin
 Total                   33.988              8.096             52.323
 Electronic               0.000              0.000              0.000
 Translational            0.889              2.981             35.927
 Rotational               0.889              2.981             15.860
 Vibrational             32.210              2.134              0.536
                       Q            Log10(Q)             Ln(Q)
 Total Bot       0.122307D-13        -13.912548        -32.034825
 Total V=0       0.399197D+10          9.601187         22.107550
 Vib (Bot)       0.321267D-23        -23.493134        -54.094940
 Vib (V=0)       0.104858D+01          0.020601          0.047436
 Electronic      0.100000D+01          0.000000          0.000000
 Translational   0.583336D+07          6.765919         15.579104
 Rotational      0.652631D+03          2.814667          6.481011
                           ----------------------------
                           ! Normal Mode     1        !
 --------------------------                            --------------------------
 ! Name  Definition              Value          Relative Weight (%)             !
 --------------------------------------------------------------------------------
 ! R1    R(1,2)                 -0.0037                  0.4                    !
 ! R2    R(1,3)                  0.0037                  0.4                    !
 ! R3    R(1,4)                  0.0                     0.0                    !
 ! R4    R(4,5)                  0.0037                  0.4                    !
 ! R5    R(4,6)                 -0.0037                  0.4                    !
 ! A1    A(2,1,3)                0.0                     0.0                    !
 ! A2    A(2,1,4)                0.2529                 24.6                    !
 ! A3    A(3,1,4)               -0.2529                 24.6                    !
 ! A4    A(1,4,5)               -0.2529                 24.6                    !
 ! A5    A(1,4,6)                0.2529                 24.6                    !
 ! A6    A(5,4,6)                0.0                     0.0                    !
 ! D1    D(2,1,4,5)              0.0                     0.0                    !
 ! D2    D(2,1,4,6)              0.0                     0.0                    !
 ! D3    D(3,1,4,5)              0.0                     0.0                    !
 ! D4    D(3,1,4,6)              0.0                     0.0                    !
 --------------------------------------------------------------------------------
                           ----------------------------
                           ! Normal Mode     2        !
 --------------------------                            --------------------------
 ! Name  Definition              Value          Relative Weight (%)             !
 --------------------------------------------------------------------------------
 ! R1    R(1,2)                  0.0                     0.0                    !
 ! R2    R(1,3)                  0.0                     0.0                    !
 ! R3    R(1,4)                  0.0                     0.0                    !
 ! R4    R(4,5)                  0.0                     0.0                    !
 ! R5    R(4,6)                  0.0                     0.0                    !
 ! A1    A(2,1,3)                0.0                     0.0                    !
 ! A2    A(2,1,4)                0.0                     0.0                    !
 ! A3    A(3,1,4)                0.0                     0.0                    !
 ! A4    A(1,4,5)                0.0                     0.0                    !
 ! A5    A(1,4,6)                0.0                     0.0                    !
 ! A6    A(5,4,6)                0.0                     0.0                    !
 ! D1    D(2,1,4,5)              0.0                     0.0                    !
 ! D2    D(2,1,4,6)              0.8853                 50.0                    !
 ! D3    D(3,1,4,5)             -0.8853                 50.0                    !
 ! D4    D(3,1,4,6)              0.0                     0.0                    !
 --------------------------------------------------------------------------------
                           ----------------------------
                           ! Normal Mode     3        !
 --------------------------                            --------------------------
 ! Name  Definition              Value          Relative Weight (%)             !
 --------------------------------------------------------------------------------
 ! R1    R(1,2)                  0.0                     0.0                    !
 ! R2    R(1,3)                  0.0                     0.0                    !
 ! R3    R(1,4)                  0.0                     0.0                    !
 ! R4    R(4,5)                  0.0                     0.0                    !
 ! R5    R(4,6)                  0.0                     0.0                    !
 ! A1    A(2,1,3)                0.0                     0.0                    !
 ! A2    A(2,1,4)                0.0                     0.0                    !
 ! A3    A(3,1,4)                0.0                     0.0                    !
 ! A4    A(1,4,5)                0.0                     0.0                    !
 ! A5    A(1,4,6)                0.0                     0.0                    !
 ! A6    A(5,4,6)                0.0                     0.0                    !
 ! D1    D(2,1,4,5)             -0.6647                 50.0                    !
 ! D2    D(2,1,4,6)              0.0                     0.0                    !
 ! D3    D(3,1,4,5)              0.0                     0.0                    !
 ! D4    D(3,1,4,6)              0.6647                 50.0                    !
 --------------------------------------------------------------------------------
                           ----------------------------
                           ! Normal Mode     4        !
 --------------------------                            --------------------------
 ! Name  Definition              Value          Relative Weight (%)             !
 --------------------------------------------------------------------------------
 ! R1    R(1,2)                  0.0                     0.0                    !
 ! R2    R(1,3)                  0.0                     0.0                    !
 ! R3    R(1,4)                  0.0                     0.0                    !
 ! R4    R(4,5)                  0.0                     0.0                    !
 ! R5    R(4,6)                  0.0                     0.0                    !
 ! A1    A(2,1,3)                0.0                     0.0                    !
 ! A2    A(2,1,4)                0.0                     0.0                    !
 ! A3    A(3,1,4)                0.0                     0.0                    !
 ! A4    A(1,4,5)                0.0                     0.0                    !
 ! A5    A(1,4,6)                0.0                     0.0                    !
 ! A6    A(5,4,6)                0.0                     0.0                    !
 ! D1    D(2,1,4,5)             -0.5731                 25.0                    !
 ! D2    D(2,1,4,6)             -0.5731                 25.0                    !
 ! D3    D(3,1,4,5)             -0.5731                 25.0                    !
 ! D4    D(3,1,4,6)             -0.5731                 25.0                    !
 --------------------------------------------------------------------------------
                           ----------------------------
                           ! Normal Mode     5        !
 --------------------------                            --------------------------
 ! Name  Definition              Value          Relative Weight (%)             !
 --------------------------------------------------------------------------------
 ! R1    R(1,2)                 -0.0059                  0.4                    !
 ! R2    R(1,3)                  0.0059                  0.4                    !
 ! R3    R(1,4)                  0.0                     0.0                    !
 ! R4    R(4,5)                 -0.0059                  0.4                    !
 ! R5    R(4,6)                  0.0059                  0.4                    !
 ! A1    A(2,1,3)                0.0                     0.0                    !
 ! A2    A(2,1,4)                0.3914                 24.6                    !
 ! A3    A(3,1,4)               -0.3914                 24.6                    !
 ! A4    A(1,4,5)                0.3914                 24.6                    !
 ! A5    A(1,4,6)               -0.3914                 24.6                    !
 ! A6    A(5,4,6)                0.0                     0.0                    !
 ! D1    D(2,1,4,5)              0.0                     0.0                    !
 ! D2    D(2,1,4,6)              0.0                     0.0                    !
 ! D3    D(3,1,4,5)              0.0                     0.0                    !
 ! D4    D(3,1,4,6)              0.0                     0.0                    !
 --------------------------------------------------------------------------------
                           ----------------------------
                           ! Normal Mode     6        !
 --------------------------                            --------------------------
 ! Name  Definition              Value          Relative Weight (%)             !
 --------------------------------------------------------------------------------
 ! R1    R(1,2)                  0.0211                  1.1                    !
 ! R2    R(1,3)                  0.0211                  1.1                    !
 ! R3    R(1,4)                  0.1935                 10.4                    !
 ! R4    R(4,5)                  0.0211                  1.1                    !
 ! R5    R(4,6)                  0.0211                  1.1                    !
 ! A1    A(2,1,3)               -0.3971                 21.3                    !
 ! A2    A(2,1,4)                0.1986                 10.6                    !
 ! A3    A(3,1,4)                0.1986                 10.6                    !
 ! A4    A(1,4,5)                0.1986                 10.6                    !
 ! A5    A(1,4,6)                0.1986                 10.6                    !
 ! A6    A(5,4,6)               -0.3971                 21.3                    !
 ! D1    D(2,1,4,5)              0.0                     0.0                    !
 ! D2    D(2,1,4,6)              0.0                     0.0                    !
 ! D3    D(3,1,4,5)              0.0                     0.0                    !
 ! D4    D(3,1,4,6)              0.0                     0.0                    !
 --------------------------------------------------------------------------------
                           ----------------------------
                           ! Normal Mode     7        !
 --------------------------                            --------------------------
 ! Name  Definition              Value          Relative Weight (%)             !
 --------------------------------------------------------------------------------
 ! R1    R(1,2)                  0.0125                  0.6                    !
 ! R2    R(1,3)                  0.0125                  0.6                    !
 ! R3    R(1,4)                  0.0                     0.0                    !
 ! R4    R(4,5)                 -0.0125                  0.6                    !
 ! R5    R(4,6)                 -0.0125                  0.6                    !
 ! A1    A(2,1,3)               -0.541                  24.4                    !
 ! A2    A(2,1,4)                0.2705                 12.2                    !
 ! A3    A(3,1,4)                0.2705                 12.2                    !
 ! A4    A(1,4,5)               -0.2705                 12.2                    !
 ! A5    A(1,4,6)               -0.2705                 12.2                    !
 ! A6    A(5,4,6)                0.541                  24.4                    !
 ! D1    D(2,1,4,5)              0.0                     0.0                    !
 ! D2    D(2,1,4,6)              0.0                     0.0                    !
 ! D3    D(3,1,4,5)              0.0                     0.0                    !
 ! D4    D(3,1,4,6)              0.0                     0.0                    !
 --------------------------------------------------------------------------------
                           ----------------------------
                           ! Normal Mode     8        !
 --------------------------                            --------------------------
 ! Name  Definition              Value          Relative Weight (%)             !
 --------------------------------------------------------------------------------
 ! R1    R(1,2)                  0.0347                  1.0                    !
 ! R2    R(1,3)                  0.0347                  1.0                    !
 ! R3    R(1,4)                  0.6301                 18.7                    !
 ! R4    R(4,5)                  0.0347                  1.0                    !
 ! R5    R(4,6)                  0.0347                  1.0                    !
 ! A1    A(2,1,3)                0.6503                 19.3                    !
 ! A2    A(2,1,4)               -0.3252                  9.6                    !
 ! A3    A(3,1,4)               -0.3252                  9.6                    !
 ! A4    A(1,4,5)               -0.3252                  9.6                    !
 ! A5    A(1,4,6)               -0.3252                  9.6                    !
 ! A6    A(5,4,6)                0.6503                 19.3                    !
 ! D1    D(2,1,4,5)              0.0                     0.0                    !
 ! D2    D(2,1,4,6)              0.0                     0.0                    !
 ! D3    D(3,1,4,5)              0.0                     0.0                    !
 ! D4    D(3,1,4,6)              0.0                     0.0                    !
 --------------------------------------------------------------------------------
                           ----------------------------
                           ! Normal Mode     9        !
 --------------------------                            --------------------------
 ! Name  Definition              Value          Relative Weight (%)             !
 --------------------------------------------------------------------------------
 ! R1    R(1,2)                  0.5214                 23.9                    !
 ! R2    R(1,3)                  0.5214                 23.9                    !
 ! R3    R(1,4)                  0.0                     0.0                    !
 ! R4    R(4,5)                 -0.5214                 23.9                    !
 ! R5    R(4,6)                 -0.5214                 23.9                    !
 ! A1    A(2,1,3)               -0.0243                  1.1                    !
 ! A2    A(2,1,4)                0.0122                  0.6                    !
 ! A3    A(3,1,4)                0.0122                  0.6                    !
 ! A4    A(1,4,5)               -0.0122                  0.6                    !
 ! A5    A(1,4,6)               -0.0122                  0.6                    !
 ! A6    A(5,4,6)                0.0243                  1.1                    !
 ! D1    D(2,1,4,5)              0.0                     0.0                    !
 ! D2    D(2,1,4,6)              0.0                     0.0                    !
 ! D3    D(3,1,4,5)              0.0                     0.0                    !
 ! D4    D(3,1,4,6)              0.0                     0.0                    !
 --------------------------------------------------------------------------------
                           ----------------------------
                           ! Normal Mode    10        !
 --------------------------                            --------------------------
 ! Name  Definition              Value          Relative Weight (%)             !
 --------------------------------------------------------------------------------
 ! R1    R(1,2)                  0.5275                 22.3                    !
 ! R2    R(1,3)                  0.5275                 22.3                    !
 ! R3    R(1,4)                 -0.1104                  4.7                    !
 ! R4    R(4,5)                  0.5275                 22.3                    !
 ! R5    R(4,6)                  0.5275                 22.3                    !
 ! A1    A(2,1,3)               -0.0374                  1.6                    !
 ! A2    A(2,1,4)                0.0187                  0.8                    !
 ! A3    A(3,1,4)                0.0187                  0.8                    !
 ! A4    A(1,4,5)                0.0187                  0.8                    !
 ! A5    A(1,4,6)                0.0187                  0.8                    !
 ! A6    A(5,4,6)               -0.0374                  1.6                    !
 ! D1    D(2,1,4,5)              0.0                     0.0                    !
 ! D2    D(2,1,4,6)              0.0                     0.0                    !
 ! D3    D(3,1,4,5)              0.0                     0.0                    !
 ! D4    D(3,1,4,6)              0.0                     0.0                    !
 --------------------------------------------------------------------------------
                           ----------------------------
                           ! Normal Mode    11        !
 --------------------------                            --------------------------
 ! Name  Definition              Value          Relative Weight (%)             !
 --------------------------------------------------------------------------------
 ! R1    R(1,2)                  0.5568                 22.2                    !
 ! R2    R(1,3)                 -0.5568                 22.2                    !
 ! R3    R(1,4)                  0.0                     0.0                    !
 ! R4    R(4,5)                  0.5568                 22.2                    !
 ! R5    R(4,6)                 -0.5568                 22.2                    !
 ! A1    A(2,1,3)                0.0                     0.0                    !
 ! A2    A(2,1,4)               -0.0716                  2.8                    !
 ! A3    A(3,1,4)                0.0716                  2.8                    !
 ! A4    A(1,4,5)               -0.0716                  2.8                    !
 ! A5    A(1,4,6)                0.0716                  2.8                    !
 ! A6    A(5,4,6)                0.0                     0.0                    !
 ! D1    D(2,1,4,5)              0.0                     0.0                    !
 ! D2    D(2,1,4,6)              0.0                     0.0                    !
 ! D3    D(3,1,4,5)              0.0                     0.0                    !
 ! D4    D(3,1,4,6)              0.0                     0.0                    !
 --------------------------------------------------------------------------------
                           ----------------------------
                           ! Normal Mode    12        !
 --------------------------                            --------------------------
 ! Name  Definition              Value          Relative Weight (%)             !
 --------------------------------------------------------------------------------
 ! R1    R(1,2)                  0.5575                 24.3                    !
 ! R2    R(1,3)                 -0.5575                 24.3                    !
 ! R3    R(1,4)                  0.0                     0.0                    !
 ! R4    R(4,5)                 -0.5575                 24.3                    !
 ! R5    R(4,6)                  0.5575                 24.3                    !
 ! A1    A(2,1,3)                0.0                     0.0                    !
 ! A2    A(2,1,4)               -0.0164                  0.7                    !
 ! A3    A(3,1,4)                0.0164                  0.7                    !
 ! A4    A(1,4,5)                0.0164                  0.7                    !
 ! A5    A(1,4,6)               -0.0164                  0.7                    !
 ! A6    A(5,4,6)                0.0                     0.0                    !
 ! D1    D(2,1,4,5)              0.0                     0.0                    !
 ! D2    D(2,1,4,6)              0.0                     0.0                    !
 ! D3    D(3,1,4,5)              0.0                     0.0                    !
 ! D4    D(3,1,4,6)              0.0                     0.0                    !
 --------------------------------------------------------------------------------
 Max01P=     11 Av01P=    5.75 Stan. Dev.=    3.05
 Max05P=      7 Av05P=    4.33 Stan. Dev.=    1.61
 Max10P=      7 Av10P=    4.00 Stan. Dev.=    1.41
 MaxNDP=     15 AvNDP=   15.00 Stan. Dev.=    0.00
 ***** Axes restored to original set *****
 -------------------------------------------------------------------
 Center     Atomic                   Forces (Hartrees/Bohr)
 Number     Number              X              Y              Z
 -------------------------------------------------------------------
      1        6           0.000000000   -0.000000000    0.000154531
      2        1          -0.000000000   -0.000044440   -0.000018741
      3        1           0.000000000    0.000044440   -0.000018741
      4        6          -0.000000000   -0.000000000   -0.000154531
      5        1           0.000000000    0.000044440    0.000018741
      6        1          -0.000000000   -0.000044440    0.000018741
 -------------------------------------------------------------------
 Cartesian Forces:  Max     0.000154531 RMS     0.000056305
 FormGI is forming the generalized inverse of G from B-inverse, IUseBI=4.

 GradGradGradGradGradGradGradGradGradGradGradGradGradGradGradGradGradGrad
 Berny optimization.
 GetPCM: File not found, return IValue=0.
 Optmz: redundant internal coordinate code flag= 1
 IB Matrix in FormBX:
              1            2            3            4            5
     1            1            1            1            4            4
     2            2            3            4            5            6
     3            0            0            0            0            0
     4            0            0            0            0            0
              6            7            8            9           10
     1            2            2            3            1            1
     2            1            1            1            4            4
     3            3            4            4            5            6
     4            0            0            0            0            0
             11           12           13           14           15
     1            5            2            2            3            3
     2            4            1            1            1            1
     3            6            4            4            4            4
     4            0            5            6            5            6
 B Matrix in FormBX:
                 1             2             3             4             5 
      1   0.000000D+00  0.000000D+00  0.000000D+00  0.000000D+00  0.000000D+00
      2  -0.849719D+00  0.849719D+00  0.000000D+00  0.849719D+00 -0.849719D+00
      3  -0.527236D+00 -0.527236D+00  0.100000D+01  0.527236D+00  0.527236D+00
      4   0.000000D+00  0.000000D+00  0.000000D+00  0.000000D+00  0.000000D+00
      5   0.849719D+00 -0.849719D+00  0.000000D+00 -0.849719D+00  0.849719D+00
      6   0.527236D+00  0.527236D+00 -0.100000D+01 -0.527236D+00 -0.527236D+00
      7   0.000000D+00  0.000000D+00  0.000000D+00  0.000000D+00  0.000000D+00
      8   0.000000D+00  0.000000D+00  0.000000D+00  0.000000D+00  0.000000D+00
      9   0.000000D+00  0.000000D+00  0.000000D+00  0.000000D+00  0.000000D+00
     10   0.000000D+00  0.000000D+00  0.000000D+00  0.000000D+00  0.000000D+00
     11   0.000000D+00  0.000000D+00  0.000000D+00  0.000000D+00  0.000000D+00
     12   0.000000D+00  0.000000D+00  0.000000D+00  0.000000D+00  0.000000D+00
                 6             7             8             9            10 
      1   0.000000D+00  0.000000D+00  0.000000D+00  0.000000D+00  0.000000D+00
      2   0.256736D+00 -0.256736D+00  0.256736D+00  0.397856D+00 -0.397856D+00
      3  -0.413768D+00  0.413768D+00  0.413768D+00  0.000000D+00  0.000000D+00
      4   0.000000D+00  0.000000D+00  0.000000D+00  0.000000D+00  0.000000D+00
      5   0.000000D+00  0.654592D+00 -0.654592D+00 -0.654592D+00  0.654592D+00
      6   0.827536D+00 -0.413768D+00 -0.413768D+00  0.413768D+00  0.413768D+00
      7   0.000000D+00  0.000000D+00  0.000000D+00  0.000000D+00  0.000000D+00
      8  -0.256736D+00 -0.397856D+00  0.397856D+00  0.256736D+00 -0.256736D+00
      9  -0.413768D+00  0.000000D+00  0.000000D+00 -0.413768D+00 -0.413768D+00
     10   0.000000D+00  0.000000D+00  0.000000D+00  0.000000D+00  0.000000D+00
     11   0.000000D+00  0.000000D+00  0.000000D+00  0.000000D+00  0.000000D+00
     12   0.000000D+00  0.000000D+00  0.000000D+00  0.000000D+00  0.000000D+00
                11            12            13            14            15 
      1   0.000000D+00 -0.573069D+00 -0.573069D+00  0.573069D+00  0.573069D+00
      2  -0.256736D+00  0.000000D+00  0.000000D+00  0.000000D+00  0.000000D+00
      3   0.413768D+00  0.000000D+00  0.000000D+00  0.000000D+00  0.000000D+00
      4   0.000000D+00  0.573069D+00  0.106679D+01 -0.106679D+01 -0.573069D+00
      5   0.000000D+00  0.000000D+00  0.000000D+00  0.000000D+00  0.000000D+00
      6  -0.827536D+00  0.000000D+00  0.000000D+00  0.000000D+00  0.000000D+00
      7   0.000000D+00  0.573069D+00 -0.106679D+01  0.106679D+01 -0.573069D+00
      8   0.256736D+00  0.000000D+00  0.000000D+00  0.000000D+00  0.000000D+00
      9   0.413768D+00  0.000000D+00  0.000000D+00  0.000000D+00  0.000000D+00
     10   0.000000D+00 -0.573069D+00  0.573069D+00 -0.573069D+00  0.573069D+00
     11   0.000000D+00  0.000000D+00  0.000000D+00  0.000000D+00  0.000000D+00
     12   0.000000D+00  0.000000D+00  0.000000D+00  0.000000D+00  0.000000D+00
 IB Matrix in Red2BG:
              1            2            3            4            5
     1            1            1            1            4            4
     2            2            3            4            5            6
     3            0            0            0            0            0
     4            0            0            0            0            0
              6            7            8            9           10
     1            2            2            3            1            1
     2            1            1            1            4            4
     3            3            4            4            5            6
     4            0            0            0            0            0
             11           12           13           14           15
     1            5            2            2            3            3
     2            4            1            1            1            1
     3            6            4            4            4            4
     4            0            5            6            5            6
 B Matrix in Red2BG:
                 1             2             3             4             5 
      1   0.000000D+00  0.000000D+00  0.000000D+00  0.000000D+00  0.000000D+00
      2  -0.849719D+00  0.849719D+00  0.000000D+00  0.849719D+00 -0.849719D+00
      3  -0.527236D+00 -0.527236D+00  0.100000D+01  0.527236D+00  0.527236D+00
      4   0.000000D+00  0.000000D+00  0.000000D+00  0.000000D+00  0.000000D+00
      5   0.849719D+00 -0.849719D+00  0.000000D+00 -0.849719D+00  0.849719D+00
      6   0.527236D+00  0.527236D+00 -0.100000D+01 -0.527236D+00 -0.527236D+00
      7   0.000000D+00  0.000000D+00  0.000000D+00  0.000000D+00  0.000000D+00
      8   0.000000D+00  0.000000D+00  0.000000D+00  0.000000D+00  0.000000D+00
      9   0.000000D+00  0.000000D+00  0.000000D+00  0.000000D+00  0.000000D+00
     10   0.000000D+00  0.000000D+00  0.000000D+00  0.000000D+00  0.000000D+00
     11   0.000000D+00  0.000000D+00  0.000000D+00  0.000000D+00  0.000000D+00
     12   0.000000D+00  0.000000D+00  0.000000D+00  0.000000D+00  0.000000D+00
                 6             7             8             9            10 
      1   0.000000D+00  0.000000D+00  0.000000D+00  0.000000D+00  0.000000D+00
      2   0.256736D+00 -0.256736D+00  0.256736D+00  0.397856D+00 -0.397856D+00
      3  -0.413768D+00  0.413768D+00  0.413768D+00  0.000000D+00  0.000000D+00
      4   0.000000D+00  0.000000D+00  0.000000D+00  0.000000D+00  0.000000D+00
      5   0.000000D+00  0.654592D+00 -0.654592D+00 -0.654592D+00  0.654592D+00
      6   0.827536D+00 -0.413768D+00 -0.413768D+00  0.413768D+00  0.413768D+00
      7   0.000000D+00  0.000000D+00  0.000000D+00  0.000000D+00  0.000000D+00
      8  -0.256736D+00 -0.397856D+00  0.397856D+00  0.256736D+00 -0.256736D+00
      9  -0.413768D+00  0.000000D+00  0.000000D+00 -0.413768D+00 -0.413768D+00
     10   0.000000D+00  0.000000D+00  0.000000D+00  0.000000D+00  0.000000D+00
     11   0.000000D+00  0.000000D+00  0.000000D+00  0.000000D+00  0.000000D+00
     12   0.000000D+00  0.000000D+00  0.000000D+00  0.000000D+00  0.000000D+00
                11            12            13            14            15 
      1   0.000000D+00 -0.573069D+00 -0.573069D+00  0.573069D+00  0.573069D+00
      2  -0.256736D+00  0.000000D+00  0.000000D+00  0.000000D+00  0.000000D+00
      3   0.413768D+00  0.000000D+00  0.000000D+00  0.000000D+00  0.000000D+00
      4   0.000000D+00  0.573069D+00  0.106679D+01 -0.106679D+01 -0.573069D+00
      5   0.000000D+00  0.000000D+00  0.000000D+00  0.000000D+00  0.000000D+00
      6  -0.827536D+00  0.000000D+00  0.000000D+00  0.000000D+00  0.000000D+00
      7   0.000000D+00  0.573069D+00 -0.106679D+01  0.106679D+01 -0.573069D+00
      8   0.256736D+00  0.000000D+00  0.000000D+00  0.000000D+00  0.000000D+00
      9   0.413768D+00  0.000000D+00  0.000000D+00  0.000000D+00  0.000000D+00
     10   0.000000D+00 -0.573069D+00  0.573069D+00 -0.573069D+00  0.573069D+00
     11   0.000000D+00  0.000000D+00  0.000000D+00  0.000000D+00  0.000000D+00
     12   0.000000D+00  0.000000D+00  0.000000D+00  0.000000D+00  0.000000D+00
 G Matrix: 
                 1             2             3             4             5 
      1   0.200000D+01 -0.444044D+00 -0.527236D+00  0.000000D+00  0.000000D+00
      2  -0.444044D+00  0.200000D+01 -0.527236D+00  0.000000D+00  0.000000D+00
      3  -0.527236D+00 -0.527236D+00  0.200000D+01 -0.527236D+00 -0.527236D+00
      4   0.000000D+00  0.000000D+00 -0.527236D+00  0.200000D+01 -0.444044D+00
      5   0.000000D+00  0.000000D+00 -0.527236D+00 -0.444044D+00  0.200000D+01
      6  -0.436307D+00 -0.436307D+00  0.827536D+00  0.000000D+00  0.000000D+00
      7  -0.338066D+00  0.774373D+00 -0.413768D+00 -0.338066D+00  0.338066D+00
      8   0.774373D+00 -0.338066D+00 -0.413768D+00  0.338066D+00 -0.338066D+00
      9  -0.338066D+00  0.338066D+00 -0.413768D+00 -0.338066D+00  0.774373D+00
     10   0.338066D+00 -0.338066D+00 -0.413768D+00  0.774373D+00 -0.338066D+00
     11   0.000000D+00  0.000000D+00  0.827536D+00 -0.436307D+00 -0.436307D+00
     12   0.000000D+00  0.000000D+00  0.000000D+00  0.000000D+00  0.000000D+00
     13   0.000000D+00  0.000000D+00  0.000000D+00  0.000000D+00  0.000000D+00
     14   0.000000D+00  0.000000D+00  0.000000D+00  0.000000D+00  0.000000D+00
     15   0.000000D+00  0.000000D+00  0.000000D+00  0.000000D+00  0.000000D+00
                 6             7             8             9            10 
      1  -0.436307D+00 -0.338066D+00  0.774373D+00 -0.338066D+00  0.338066D+00
      2  -0.436307D+00  0.774373D+00 -0.338066D+00  0.338066D+00 -0.338066D+00
      3   0.827536D+00 -0.413768D+00 -0.413768D+00 -0.413768D+00 -0.413768D+00
      4   0.000000D+00 -0.338066D+00  0.338066D+00 -0.338066D+00  0.774373D+00
      5   0.000000D+00  0.338066D+00 -0.338066D+00  0.774373D+00 -0.338066D+00
      6   0.115905D+01 -0.579526D+00 -0.579526D+00  0.000000D+00  0.000000D+00
      7  -0.579526D+00  0.995102D+00 -0.415576D+00  0.520867D+00 -0.520867D+00
      8  -0.579526D+00 -0.415576D+00  0.995102D+00 -0.520867D+00  0.520867D+00
      9   0.000000D+00  0.520867D+00 -0.520867D+00  0.995102D+00 -0.415576D+00
     10   0.000000D+00 -0.520867D+00  0.520867D+00 -0.415576D+00  0.995102D+00
     11   0.000000D+00  0.000000D+00  0.000000D+00 -0.579526D+00 -0.579526D+00
     12   0.000000D+00  0.000000D+00  0.000000D+00  0.000000D+00  0.000000D+00
     13   0.000000D+00  0.000000D+00  0.000000D+00  0.000000D+00  0.000000D+00
     14   0.000000D+00  0.000000D+00  0.000000D+00  0.000000D+00  0.000000D+00
     15   0.000000D+00  0.000000D+00  0.000000D+00  0.000000D+00  0.000000D+00
                11            12            13            14            15 
      1   0.000000D+00  0.000000D+00  0.000000D+00  0.000000D+00  0.000000D+00
      2   0.000000D+00  0.000000D+00  0.000000D+00  0.000000D+00  0.000000D+00
      3   0.827536D+00  0.000000D+00  0.000000D+00  0.000000D+00  0.000000D+00
      4  -0.436307D+00  0.000000D+00  0.000000D+00  0.000000D+00  0.000000D+00
      5  -0.436307D+00  0.000000D+00  0.000000D+00  0.000000D+00  0.000000D+00
      6   0.000000D+00  0.000000D+00  0.000000D+00  0.000000D+00  0.000000D+00
      7   0.000000D+00  0.000000D+00  0.000000D+00  0.000000D+00  0.000000D+00
      8   0.000000D+00  0.000000D+00  0.000000D+00  0.000000D+00  0.000000D+00
      9  -0.579526D+00  0.000000D+00  0.000000D+00  0.000000D+00  0.000000D+00
     10  -0.579526D+00  0.000000D+00  0.000000D+00  0.000000D+00  0.000000D+00
     11   0.115905D+01  0.000000D+00  0.000000D+00  0.000000D+00  0.000000D+00
     12   0.000000D+00  0.131363D+01  0.328408D+00  0.328408D+00 -0.656815D+00
     13   0.000000D+00  0.328408D+00  0.293291D+01 -0.227610D+01  0.328408D+00
     14   0.000000D+00  0.328408D+00 -0.227610D+01  0.293291D+01  0.328408D+00
     15   0.000000D+00 -0.656815D+00  0.328408D+00  0.328408D+00  0.131363D+01
 Red2BG:  D1=  2.81D-01 OD1=  2.61D-15 B2RMS=  0.00D+00 IAprox=1
 Red2BG is reusing G-inverse.
 G-Inverse: 
                1             2             3             4             5 
      1  0.802705D+00
      2  0.104636D+00  0.802705D+00
      3  0.263618D+00  0.263618D+00  0.150000D+01
      4  0.136038D+00 -0.433786D-01  0.263618D+00  0.802705D+00
      5 -0.433786D-01  0.136038D+00  0.263618D+00  0.104636D+00  0.802705D+00
      6  0.102225D+00  0.102225D+00 -0.581664D+00 -0.102225D+00 -0.102225D+00
      7  0.262214D+00 -0.364439D+00  0.290832D+00  0.577650D-01  0.444597D-01
      8 -0.364439D+00  0.262214D+00  0.290832D+00  0.444597D-01  0.577650D-01
      9  0.577650D-01  0.444597D-01  0.290832D+00  0.262214D+00 -0.364439D+00
     10  0.444597D-01  0.577650D-01  0.290832D+00 -0.364439D+00  0.262214D+00
     11 -0.102225D+00 -0.102225D+00 -0.581664D+00  0.102225D+00  0.102225D+00
     12  0.000000D+00  0.000000D+00  0.000000D+00  0.000000D+00  0.000000D+00
     13  0.000000D+00  0.000000D+00  0.000000D+00  0.000000D+00  0.000000D+00
     14  0.000000D+00  0.000000D+00  0.000000D+00  0.000000D+00  0.000000D+00
     15  0.000000D+00  0.000000D+00  0.000000D+00  0.000000D+00  0.000000D+00
                6             7             8             9            10 
      6  0.711626D+00
      7 -0.355813D+00  0.125547D+01
      8 -0.355813D+00 -0.899659D+00  0.125547D+01
      9 -0.112778D+00 -0.583931D+00  0.696709D+00  0.125547D+01
     10 -0.112778D+00  0.696709D+00 -0.583931D+00 -0.899659D+00  0.125547D+01
     11  0.225555D+00 -0.112778D+00 -0.112778D+00 -0.355813D+00 -0.355813D+00
     12  0.000000D+00  0.000000D+00  0.000000D+00  0.000000D+00  0.000000D+00
     13  0.000000D+00  0.000000D+00  0.000000D+00  0.000000D+00  0.000000D+00
     14  0.000000D+00  0.000000D+00  0.000000D+00  0.000000D+00  0.000000D+00
     15  0.000000D+00  0.000000D+00  0.000000D+00  0.000000D+00  0.000000D+00
               11            12            13            14            15 
     11  0.711626D+00
     12  0.000000D+00  0.444062D+00
     13  0.000000D+00  0.190312D+00  0.286300D+00
     14  0.000000D+00  0.190312D+00  0.943249D-01  0.286300D+00
     15  0.000000D+00 -0.634374D-01  0.190312D+00  0.190312D+00  0.444062D+00
 Internal  Forces:  Max     0.000117049 RMS     0.000039240
 Search for a local minimum.
 Step number   1 out of a maximum of    2
 All quantities printed in internal units (Hartrees-Bohrs-Radians)
 Second derivative matrix not updated -- analytic derivatives used.
 The second derivative matrix:
                          R1        R2        R3        R4        R5
           R1           0.35962
           R2           0.00199   0.35962
           R3           0.00648   0.00648   0.64932
           R4          -0.00047   0.00069   0.00648   0.35962
           R5           0.00069  -0.00047   0.00648   0.00199   0.35962
           A1           0.00704   0.00704  -0.02129  -0.00099  -0.00099
           A2           0.00461  -0.01165   0.01064   0.00441  -0.00342
           A3          -0.01165   0.00461   0.01064  -0.00342   0.00441
           A4           0.00441  -0.00342   0.01064   0.00461  -0.01165
           A5          -0.00342   0.00441   0.01064  -0.01165   0.00461
           A6          -0.00099  -0.00099  -0.02129   0.00704   0.00704
           D1           0.00000  -0.00000  -0.00000  -0.00000   0.00000
           D2           0.00000   0.00000   0.00000   0.00000  -0.00000
           D3          -0.00000   0.00000  -0.00000  -0.00000   0.00000
           D4          -0.00000   0.00000  -0.00000   0.00000  -0.00000
                          A1        A2        A3        A4        A5
           A1           0.07345
           A2          -0.03672   0.08155
           A3          -0.03672  -0.04483   0.08155
           A4          -0.00143   0.01049  -0.00906   0.08155
           A5          -0.00143  -0.00906   0.01049  -0.04483   0.08155
           A6           0.00287  -0.00143  -0.00143  -0.03672  -0.03672
           D1           0.00000  -0.00000   0.00000  -0.00000   0.00000
           D2           0.00000  -0.00000   0.00000   0.00000   0.00000
           D3           0.00000   0.00000  -0.00000  -0.00000   0.00000
           D4           0.00000   0.00000  -0.00000   0.00000   0.00000
                          A6        D1        D2        D3        D4
           A6           0.07345
           D1           0.00000   0.03202
           D2          -0.00000   0.00830   0.02525
           D3           0.00000   0.00830  -0.00865   0.02525
           D4          -0.00000  -0.01542   0.00830   0.00830   0.03202
 ITU=  0
 IAlgDg is returning  0.
 DiagDN:  BShift=  1.00D+00
 Eigenvectors of the second derivative matrix:
                           1         2         3         4         5
     Eigenvalues --     0.03320   0.03391   0.04744   0.10511   0.10655
   1         R1        -0.00000  -0.00000   0.00000   0.02710  -0.01671
   2         R2        -0.00000   0.00000  -0.00000   0.02710   0.01671
   3         R3         0.00000  -0.00000   0.00000  -0.00000  -0.00000
   4         R4         0.00000  -0.00000  -0.00000  -0.02710   0.01671
   5         R5         0.00000   0.00000   0.00000  -0.02710  -0.01671
   6         A1        -0.00000  -0.00000  -0.00000  -0.57650  -0.00000
   7         A2         0.00000   0.00000  -0.00000   0.28825   0.49972
   8         A3        -0.00000  -0.00000   0.00000   0.28825  -0.49972
   9         A4         0.00000  -0.00000  -0.00000  -0.28825  -0.49972
  10         A5        -0.00000   0.00000  -0.00000  -0.28825   0.49972
  11         A6         0.00000   0.00000   0.00000   0.57650  -0.00000
  12         D1         0.50000   0.00000  -0.70711  -0.00000   0.00000
  13         D2         0.50000   0.70711  -0.00000  -0.00000  -0.00000
  14         D3         0.50000  -0.70711   0.00000  -0.00000   0.00000
  15         D4         0.50000   0.00000   0.70711  -0.00000   0.00000
                           6         7         8         9        10
     Eigenvalues --     0.11143   0.14320   0.35907   0.35919   0.36184
   1         R1        -0.02262   0.05612  -0.49972  -0.49684   0.49905
   2         R2        -0.02262  -0.05612   0.49972   0.49684   0.49905
   3         R3         0.06940   0.00000  -0.00000  -0.00000  -0.03881
   4         R4        -0.02262   0.05612   0.49972  -0.49684   0.49905
   5         R5        -0.02262  -0.05612  -0.49972   0.49684   0.49905
   6         A1         0.57537   0.00000   0.00000  -0.00000   0.02772
   7         A2        -0.28768  -0.49684  -0.01671  -0.05612  -0.01386
   8         A3        -0.28768   0.49684   0.01671   0.05612  -0.01386
   9         A4        -0.28768  -0.49684   0.01671  -0.05612  -0.01386
  10         A5        -0.28768   0.49684  -0.01671   0.05612  -0.01386
  11         A6         0.57537  -0.00000   0.00000   0.00000   0.02772
  12         D1         0.00000   0.00000  -0.00000   0.00000  -0.00000
  13         D2        -0.00000   0.00000   0.00000  -0.00000   0.00000
  14         D3         0.00000   0.00000  -0.00000   0.00000  -0.00000
  15         D4        -0.00000   0.00000   0.00000  -0.00000   0.00000
                          11        12
     Eigenvalues --     0.36214   0.65236
   1         R1         0.49927   0.02101
   2         R2         0.49927   0.02101
   3         R3         0.00000   0.99683
   4         R4        -0.49927   0.02101
   5         R5        -0.49927   0.02101
   6         A1         0.03129  -0.03898
   7         A2        -0.01564   0.01949
   8         A3        -0.01564   0.01949
   9         A4         0.01564   0.01949
  10         A5         0.01564   0.01949
  11         A6        -0.03129  -0.03898
  12         D1         0.00000  -0.00000
  13         D2         0.00000   0.00000
  14         D3         0.00000  -0.00000
  15         D4         0.00000  -0.00000
 Forces in eigenvector basis: 
                 1 
      1   0.000000D+00
      2   0.000000D+00
      3   0.000000D+00
      4   0.000000D+00
      5   0.000000D+00
      6  -0.530239D-05
      7   0.000000D+00
      8   0.000000D+00
      9   0.000000D+00
     10  -0.100501D-03
     11   0.000000D+00
     12   0.113876D-03
 Angle between quadratic step and forces=  17.50 degrees.
 Linear search not attempted -- first point.
 IB Matrix in FormBX:
              1            2            3            4            5
     1            1            1            1            4            4
     2            2            3            4            5            6
     3            0            0            0            0            0
     4            0            0            0            0            0
              6            7            8            9           10
     1            2            2            3            1            1
     2            1            1            1            4            4
     3            3            4            4            5            6
     4            0            0            0            0            0
             11           12           13           14           15
     1            5            2            2            3            3
     2            4            1            1            1            1
     3            6            4            4            4            4
     4            0            5            6            5            6
 B Matrix in FormBX:
                 1             2             3             4             5 
      1   0.000000D+00  0.000000D+00  0.000000D+00  0.000000D+00  0.000000D+00
      2  -0.849719D+00  0.849719D+00  0.000000D+00  0.849719D+00 -0.849719D+00
      3  -0.527236D+00 -0.527236D+00  0.100000D+01  0.527236D+00  0.527236D+00
      4   0.000000D+00  0.000000D+00  0.000000D+00  0.000000D+00  0.000000D+00
      5   0.849719D+00 -0.849719D+00  0.000000D+00 -0.849719D+00  0.849719D+00
      6   0.527236D+00  0.527236D+00 -0.100000D+01 -0.527236D+00 -0.527236D+00
      7   0.000000D+00  0.000000D+00  0.000000D+00  0.000000D+00  0.000000D+00
      8   0.000000D+00  0.000000D+00  0.000000D+00  0.000000D+00  0.000000D+00
      9   0.000000D+00  0.000000D+00  0.000000D+00  0.000000D+00  0.000000D+00
     10   0.000000D+00  0.000000D+00  0.000000D+00  0.000000D+00  0.000000D+00
     11   0.000000D+00  0.000000D+00  0.000000D+00  0.000000D+00  0.000000D+00
     12   0.000000D+00  0.000000D+00  0.000000D+00  0.000000D+00  0.000000D+00
                 6             7             8             9            10 
      1   0.000000D+00  0.000000D+00  0.000000D+00  0.000000D+00  0.000000D+00
      2   0.256736D+00 -0.256736D+00  0.256736D+00  0.397856D+00 -0.397856D+00
      3  -0.413768D+00  0.413768D+00  0.413768D+00  0.000000D+00  0.000000D+00
      4   0.000000D+00  0.000000D+00  0.000000D+00  0.000000D+00  0.000000D+00
      5   0.000000D+00  0.654592D+00 -0.654592D+00 -0.654592D+00  0.654592D+00
      6   0.827536D+00 -0.413768D+00 -0.413768D+00  0.413768D+00  0.413768D+00
      7   0.000000D+00  0.000000D+00  0.000000D+00  0.000000D+00  0.000000D+00
      8  -0.256736D+00 -0.397856D+00  0.397856D+00  0.256736D+00 -0.256736D+00
      9  -0.413768D+00  0.000000D+00  0.000000D+00 -0.413768D+00 -0.413768D+00
     10   0.000000D+00  0.000000D+00  0.000000D+00  0.000000D+00  0.000000D+00
     11   0.000000D+00  0.000000D+00  0.000000D+00  0.000000D+00  0.000000D+00
     12   0.000000D+00  0.000000D+00  0.000000D+00  0.000000D+00  0.000000D+00
                11            12            13            14            15 
      1   0.000000D+00 -0.573069D+00 -0.573069D+00  0.573069D+00  0.573069D+00
      2  -0.256736D+00  0.000000D+00  0.000000D+00  0.000000D+00  0.000000D+00
      3   0.413768D+00  0.000000D+00  0.000000D+00  0.000000D+00  0.000000D+00
      4   0.000000D+00  0.573069D+00  0.106679D+01 -0.106679D+01 -0.573069D+00
      5   0.000000D+00  0.000000D+00  0.000000D+00  0.000000D+00  0.000000D+00
      6  -0.827536D+00  0.000000D+00  0.000000D+00  0.000000D+00  0.000000D+00
      7   0.000000D+00  0.573069D+00 -0.106679D+01  0.106679D+01 -0.573069D+00
      8   0.256736D+00  0.000000D+00  0.000000D+00  0.000000D+00  0.000000D+00
      9   0.413768D+00  0.000000D+00  0.000000D+00  0.000000D+00  0.000000D+00
     10   0.000000D+00 -0.573069D+00  0.573069D+00 -0.573069D+00  0.573069D+00
     11   0.000000D+00  0.000000D+00  0.000000D+00  0.000000D+00  0.000000D+00
     12   0.000000D+00  0.000000D+00  0.000000D+00  0.000000D+00  0.000000D+00
 Iteration  1 RMS(Cart)=  0.00008318 RMS(Int)=  0.00000000
 Iteration  2 RMS(Cart)=  0.00000000 RMS(Int)=  0.00000000
 Input Coordinates in SymCor: 
                 1             2             3             4             5 
      1   0.000000D+00  0.000000D+00  0.000000D+00  0.000000D+00  0.000000D+00
      2   0.000000D+00  0.174486D+01 -0.174486D+01  0.000000D+00 -0.174486D+01
      3   0.125683D+01  0.233953D+01  0.233953D+01 -0.125683D+01 -0.233953D+01
                 6 
      1   0.000000D+00
      2   0.174486D+01
      3  -0.233953D+01
 Symmetrized Coordinates in SymCor: 
                 1             2             3             4             5 
      1   0.000000D+00  0.000000D+00  0.000000D+00  0.000000D+00  0.000000D+00
      2   0.000000D+00  0.174486D+01 -0.174486D+01  0.000000D+00 -0.174486D+01
      3   0.125683D+01  0.233953D+01  0.233953D+01 -0.125683D+01 -0.233953D+01
                 6 
      1   0.000000D+00
      2   0.174486D+01
      3  -0.233953D+01
 Final Coordinates in SymCor: 
                 1             2             3             4             5 
      1   0.000000D+00  0.000000D+00  0.000000D+00  0.000000D+00  0.000000D+00
      2   0.000000D+00  0.174486D+01 -0.174486D+01  0.000000D+00 -0.174486D+01
      3   0.125683D+01  0.233953D+01  0.233953D+01 -0.125683D+01 -0.233953D+01
                 6 
      1   0.000000D+00
      2   0.174486D+01
      3  -0.233953D+01
 ClnCor:  largest displacement from symmetrization is 1.33D-12 for atom     5.
 Variable       Old X    -DE/DX   Delta X   Delta X   Delta X     New X
                                 (Linear)    (Quad)   (Total)
    R1        2.05361  -0.00005   0.00000  -0.00013  -0.00013   2.05348
    R2        2.05361  -0.00005   0.00000  -0.00013  -0.00013   2.05348
    R3        2.51347   0.00012   0.00000   0.00018   0.00018   2.51365
    R4        2.05361  -0.00005   0.00000  -0.00013  -0.00013   2.05348
    R5        2.05361  -0.00005   0.00000  -0.00013  -0.00013   2.05348
    A1        2.03090  -0.00001   0.00000  -0.00004  -0.00004   2.03086
    A2        2.12614   0.00001   0.00000   0.00002   0.00002   2.12616
    A3        2.12614   0.00001   0.00000   0.00002   0.00002   2.12616
    A4        2.12614   0.00001   0.00000   0.00002   0.00002   2.12616
    A5        2.12614   0.00001   0.00000   0.00002   0.00002   2.12616
    A6        2.03090  -0.00001   0.00000  -0.00004  -0.00004   2.03086
    D1        3.14159  -0.00000   0.00000  -0.00000   0.00000   3.14159
    D2        0.00000   0.00000   0.00000   0.00000   0.00000   0.00000
    D3        0.00000  -0.00000   0.00000  -0.00000   0.00000   0.00000
    D4        3.14159   0.00000   0.00000   0.00000   0.00000   3.14159
         Item               Value     Threshold  Converged?
 Maximum Force            0.000117     0.000450     YES
 RMS     Force            0.000039     0.000300     YES
 Maximum Displacement     0.000136     0.001800     YES
 RMS     Displacement     0.000083     0.001200     YES
 Predicted change in Energy=-2.402249D-08
 Optimization completed.
    -- Stationary point found.
                           ----------------------------
                           !   Optimized Parameters   !
                           ! (Angstroms and Degrees)  !
 --------------------------                            --------------------------
 ! Name  Definition              Value          Derivative Info.                !
 --------------------------------------------------------------------------------
 ! R1    R(1,2)                  1.0867         -DE/DX =    0.0                 !
 ! R2    R(1,3)                  1.0867         -DE/DX =    0.0                 !
 ! R3    R(1,4)                  1.3301         -DE/DX =    0.0001              !
 ! R4    R(4,5)                  1.0867         -DE/DX =    0.0                 !
 ! R5    R(4,6)                  1.0867         -DE/DX =    0.0                 !
 ! A1    A(2,1,3)              116.3622         -DE/DX =    0.0                 !
 ! A2    A(2,1,4)              121.8189         -DE/DX =    0.0                 !
 ! A3    A(3,1,4)              121.8189         -DE/DX =    0.0                 !
 ! A4    A(1,4,5)              121.8189         -DE/DX =    0.0                 !
 ! A5    A(1,4,6)              121.8189         -DE/DX =    0.0                 !
 ! A6    A(5,4,6)              116.3622         -DE/DX =    0.0                 !
 ! D1    D(2,1,4,5)            180.0            -DE/DX =    0.0                 !
 ! D2    D(2,1,4,6)              0.0            -DE/DX =    0.0                 !
 ! D3    D(3,1,4,5)              0.0            -DE/DX =    0.0                 !
 ! D4    D(3,1,4,6)            180.0            -DE/DX =    0.0                 !
 --------------------------------------------------------------------------------
 GradGradGradGradGradGradGradGradGradGradGradGradGradGradGradGradGradGrad

 Leave Link  103 at Sat Aug 10 16:32:50 2019, MaxMem=  4294967296 cpu:               0.4 elap:               0.0
 Dipole is zero, so no output in dipole orientation.

 ----------------------------------------------------------------------

 Electric dipole moment (input orientation):
 (Debye = 10**-18 statcoulomb cm , SI units = C m)
                  (au)            (Debye)         (10**-30 SI)
   Tot        0.000000D+00      0.000000D+00      0.000000D+00
   x          0.000000D+00      0.000000D+00      0.000000D+00
   y          0.000000D+00      0.000000D+00      0.000000D+00
   z          0.000000D+00      0.000000D+00      0.000000D+00

 Dipole polarizability, Alpha (input orientation).
 (esu units = cm**3 , SI units = C**2 m**2 J**-1)
 Alpha(0;0):
               (au)            (10**-24 esu)      (10**-40 SI)
   iso        0.202226D+02      0.299669D+01      0.333426D+01
   aniso      0.192154D+02      0.284743D+01      0.316820D+01
   xx         0.889860D+01      0.131864D+01      0.146718D+01
   yx         0.000000D+00      0.000000D+00      0.000000D+00
   yy         0.206979D+02      0.306712D+01      0.341263D+01
   zx         0.000000D+00      0.000000D+00      0.000000D+00
   zy         0.000000D+00      0.000000D+00      0.000000D+00
   zz         0.310714D+02      0.460431D+01      0.512298D+01

 ----------------------------------------------------------------------

 Test job not archived.
 1\1\NSC-N1364\Freq\RB3LYP\6-31G(d,p)\C2H4\X_KJEJO\10-Aug-2019\0\\# fre
 q(hpmodes,intmodes) iop(1/33=3) b3lyp/6-31g(d,p) geom=connectivity iop
 (7/75=-1)\\name\\0,1\C,0.,0.,0.665036\H,0.,0.92341,1.237996\H,0.,-0.92
 341,1.237996\C,0.,0.,-0.665036\H,0.,-0.92341,-1.237996\H,0.,0.92341,-1
 .237996\\Version=ES64L-G16RevB.01\State=1-AG\HF=-78.593808\RMSD=7.585e
 -10\RMSF=5.631e-05\ZeroPoint=0.0511204\Thermal=0.0541629\Dipole=0.,0.,
 0.\DipoleDeriv=-0.264817,0.,0.,0.,0.1306788,0.,0.,0.,0.0068586,0.13240
 85,0.,0.,0.,-0.0653394,-0.0763674,0.,-0.0562683,-0.0034293,0.1324085,0
 .,0.,0.,-0.0653394,0.0763674,0.,0.0562683,-0.0034293,-0.264817,0.,0.,0
 .,0.1306788,0.,0.,0.,0.0068586,0.1324085,0.,0.,0.,-0.0653394,-0.076367
 4,0.,-0.0562683,-0.0034293,0.1324085,0.,0.,0.,-0.0653394,0.0763674,0.,
 0.0562683,-0.0034293\Polar=8.8986011,0.,20.697937,0.,0.,31.0714043\Qua
 drupole=-1.4367119,0.6768165,0.7598955,0.,0.,0.\PG=D02H [C2"(C1.C1),SG
 (H4)]\NImag=0\\0.10833934,0.,0.63829748,0.,0.,0.87864394,-0.03633263,0
 .,0.,0.02428593,0.,-0.26621703,-0.12501445,0.,0.27577394,0.,-0.1212259
 9,-0.13128826,0.,0.13631055,0.13804006,-0.03633263,0.,0.,0.00245130,0.
 ,0.,0.02428593,0.,-0.26621703,0.12501445,0.,-0.01631695,0.01399031,0.,
 0.27577394,0.,0.12122599,-0.13128826,0.,-0.01399031,0.00987452,0.,-0.1
 3631055,0.13804006,-0.04598059,0.,0.,0.00515325,0.,0.,0.00515325,0.,0.
 ,0.10833934,0.,-0.11346121,0.,0.,0.00379890,-0.02997751,0.,0.00379890,
 0.02997751,0.,0.63829748,0.,0.,-0.58995981,0.,0.00206937,-0.01305380,0
 .,-0.00206937,-0.01305380,0.,0.,0.87864394,0.00515325,0.,0.,0.01312289
 ,0.,0.,-0.00868074,0.,0.,-0.03633263,0.,0.,0.02428593,0.,0.00379890,0.
 00206937,0.,0.00162363,0.00076374,0.,0.00133751,-0.00013890,0.,-0.2662
 1703,-0.12501445,0.,0.27577394,0.,-0.02997751,-0.01305380,0.,0.0007637
 4,-0.00500660,0.,0.00013890,0.00143409,0.,-0.12122599,-0.13128826,0.,0
 .13631055,0.13804006,0.00515325,0.,0.,-0.00868074,0.,0.,0.01312289,0.,
 0.,-0.03633263,0.,0.,0.00245130,0.,0.,0.02428593,0.,0.00379890,-0.0020
 6937,0.,0.00133751,0.00013890,0.,0.00162363,-0.00076374,0.,-0.26621703
 ,0.12501445,0.,-0.01631695,0.01399031,0.,0.27577394,0.,0.02997751,-0.0
 1305380,0.,-0.00013890,0.00143409,0.,-0.00076374,-0.00500660,0.,0.1212
 2599,-0.13128826,0.,-0.01399031,0.00987452,0.,-0.13631055,0.13804006\\
 0.,0.,-0.00015453,0.,0.00004444,0.00001874,0.,-0.00004444,0.00001874,0
 .,0.,0.00015453,0.,-0.00004444,-0.00001874,0.,0.00004444,-0.00001874\\
 \@


 THE MOST BEAUTIFUL EXPERIENCE WE CAN HAVE IS THE MYSTERIOUS.
 IT IS THE FUNDAMENTAL EMOTION WHICH STANDS AT AT THE CRADLE 
 OF TRUE ART AND TRUE SCIENCE.

                                    -- ALBERT EINSTEIN
 Job cpu time:       0 days  0 hours  0 minutes 45.3 seconds.
 Elapsed time:       0 days  0 hours  0 minutes  3.7 seconds.
 File lengths (MBytes):  RWF=      6 Int=      0 D2E=      0 Chk=      8 Scr=      1
 Normal termination of Gaussian 16 at Sat Aug 10 16:32:50 2019.
