 Entering Gaussian System, Link 0=/software/sse/easybuild/prefix/software/Gaussian/16.B.01-avx2-nsc1-bdist/g16/g16.orig
 Input=freq-lm.wrap
 Output=freq-lm.log
 Initial command:
 /software/sse/easybuild/prefix/software/Gaussian/16.B.01-avx2-nsc1-bdist/g16/l1.exe "/scratch/local/Gau-8136.inp" -scrdir="/scratch/local/"
 Default is to use a total of  16 processors:
                               16 via shared-memory
                                1 via Linda
 Entering Link 1 = /software/sse/easybuild/prefix/software/Gaussian/16.B.01-avx2-nsc1-bdist/g16/l1.exe PID=      8142.
  
 Copyright (c) 1988-2017, Gaussian, Inc.  All Rights Reserved.
  
 This is part of the Gaussian(R) 16 program.  It is based on
 the Gaussian(R) 09 system (copyright 2009, Gaussian, Inc.),
 the Gaussian(R) 03 system (copyright 2003, Gaussian, Inc.),
 the Gaussian(R) 98 system (copyright 1998, Gaussian, Inc.),
 the Gaussian(R) 94 system (copyright 1995, Gaussian, Inc.),
 the Gaussian 92(TM) system (copyright 1992, Gaussian, Inc.),
 the Gaussian 90(TM) system (copyright 1990, Gaussian, Inc.),
 the Gaussian 88(TM) system (copyright 1988, Gaussian, Inc.),
 the Gaussian 86(TM) system (copyright 1986, Carnegie Mellon
 University), and the Gaussian 82(TM) system (copyright 1983,
 Carnegie Mellon University). Gaussian is a federally registered
 trademark of Gaussian, Inc.
  
 This software contains proprietary and confidential information,
 including trade secrets, belonging to Gaussian, Inc.
  
 This software is provided under written license and may be
 used, copied, transmitted, or stored only in accord with that
 written license.
  
 The following legend is applicable only to US Government
 contracts under FAR:
  
                    RESTRICTED RIGHTS LEGEND
  
 Use, reproduction and disclosure by the US Government is
 subject to restrictions as set forth in subparagraphs (a)
 and (c) of the Commercial Computer Software - Restricted
 Rights clause in FAR 52.227-19.
  
 Gaussian, Inc.
 340 Quinnipiac St., Bldg. 40, Wallingford CT 06492
  
  
 ---------------------------------------------------------------
 Warning -- This program may not be used in any manner that
 competes with the business of Gaussian, Inc. or will provide
 assistance to any competitor of Gaussian, Inc.  The licensee
 of this program is prohibited from giving any competitor of
 Gaussian, Inc. access to this program.  By using this program,
 the user acknowledges that Gaussian, Inc. is engaged in the
 business of creating and licensing software in the field of
 computational chemistry and represents and warrants to the
 licensee that it is not a competitor of Gaussian, Inc. and that
 it will not use this program in any manner prohibited above.
 ---------------------------------------------------------------
  

 Cite this work as:
 Gaussian 16, Revision B.01,
 M. J. Frisch, G. W. Trucks, H. B. Schlegel, G. E. Scuseria, 
 M. A. Robb, J. R. Cheeseman, G. Scalmani, V. Barone, 
 G. A. Petersson, H. Nakatsuji, X. Li, M. Caricato, A. V. Marenich, 
 J. Bloino, B. G. Janesko, R. Gomperts, B. Mennucci, H. P. Hratchian, 
 J. V. Ortiz, A. F. Izmaylov, J. L. Sonnenberg, D. Williams-Young, 
 F. Ding, F. Lipparini, F. Egidi, J. Goings, B. Peng, A. Petrone, 
 T. Henderson, D. Ranasinghe, V. G. Zakrzewski, J. Gao, N. Rega, 
 G. Zheng, W. Liang, M. Hada, M. Ehara, K. Toyota, R. Fukuda, 
 J. Hasegawa, M. Ishida, T. Nakajima, Y. Honda, O. Kitao, H. Nakai, 
 T. Vreven, K. Throssell, J. A. Montgomery, Jr., J. E. Peralta, 
 F. Ogliaro, M. J. Bearpark, J. J. Heyd, E. N. Brothers, K. N. Kudin, 
 V. N. Staroverov, T. A. Keith, R. Kobayashi, J. Normand, 
 K. Raghavachari, A. P. Rendell, J. C. Burant, S. S. Iyengar, 
 J. Tomasi, M. Cossi, J. M. Millam, M. Klene, C. Adamo, R. Cammi, 
 J. W. Ochterski, R. L. Martin, K. Morokuma, O. Farkas, 
 J. B. Foresman, and D. J. Fox, Gaussian, Inc., Wallingford CT, 2016.
 
 ******************************************
 Gaussian 16:  ES64L-G16RevB.01 20-Dec-2017
                10-Aug-2019 
 ******************************************
 %chk=freq.chk
 ----------------------------------------------------------------------
 # freq(intmodes) iop(1/33=3) b3lyp/6-31g(d,p) geom=connectivity iop(7/
 75=-1)
 ----------------------------------------------------------------------
 1/10=4,18=20,30=1,33=3,38=1,57=2/1,3;
 2/9=110,12=2,17=6,18=5,40=1/2;
 3/5=1,6=6,7=101,11=2,25=1,30=1,71=2,74=-5,140=1/1,2,3;
 4//1;
 5/5=2,38=5,98=1/2;
 8/6=4,10=90,11=11/1;
 11/6=1,8=1,9=11,15=111,16=1/1,2,10;
 10/6=1/2;
 6/7=2,8=2,9=2,10=2,28=1/1;
 7/8=21,10=1,25=1,75=-1/1,2,3,16;
 1/10=4,18=20,30=1,33=3/3;
 99//99;
 ONIOM results not found on unit 2.
 ----
 name
 ----
 TstMul:  ICh=     0
 TstMul:  Mul=     1
 TstMul:  ICh=     0
 TstMul:  Mul=     1
 Symbolic Z-matrix:
 Charge =  0 Multiplicity = 1
 C                     0.93531  -0.71866   0. 
 H                     1.5892   -0.67428  -0.87965 
 H                     0.37081  -1.65261   0. 
 H                     1.5892   -0.67428   0.87965 
 C                     0.        0.46322   0. 
 H                     0.50363   1.45748   0. 
 O                    -1.20809   0.38454   0. 
 
 RdStrC is calling ZToCFu for IStruc=1 NZ=     7.
                                ZToCFu                                
 ---------------------------------------------------------------------
 Center     Atomic      Atomic             Coordinates (Angstroms)
 Number     Number       Type             X           Y           Z
 ---------------------------------------------------------------------
      1          6           0        0.935313   -0.718656    0.000000
      2          1           0        1.589195   -0.674276   -0.879647
      3          1           0        0.370805   -1.652608    0.000000
      4          1           0        1.589195   -0.674276    0.879647
      5          6           0        0.000000    0.463222    0.000000
      6          1           0        0.503628    1.457476    0.000000
      7          8           0       -1.208088    0.384536    0.000000
 ---------------------------------------------------------------------
 Connectivity in DoCon:
 I=     1 IAn=  6 IBond, RBType=     2  1.00     3  1.00     4  1.00     5  1.00
 I=     2 IAn=  1 IBond, RBType=     1  1.00
 I=     3 IAn=  1 IBond, RBType=     1  1.00
 I=     4 IAn=  1 IBond, RBType=     1  1.00
 I=     5 IAn=  6 IBond, RBType=     1  1.00     6  1.00     7  2.00
 I=     6 IAn=  1 IBond, RBType=     5  1.00
 I=     7 IAn=  8 IBond, RBType=     5  2.00
 After GenITR:
 ITRead=  0  0  0  0  0  0  0
 MicOpt= -1 -1 -1 -1 -1 -1 -1
 List IsCon N=      7 M=      2:
 I=      1 Vals=      2      1 |      3      1 |      4      1 |      5      1 |
 I=      2 Vals=      1      1 |
 I=      3 Vals=      1      1 |
 I=      4 Vals=      1      1 |
 I=      5 Vals=      1      1 |      6      1 |      7      2 |
 I=      6 Vals=      5      1 |
 I=      7 Vals=      5      2 |
 Coordinate R1 contains atom 1 which is already in QM block.
 Coordinate R1 contains atom 2 which is already in QM block.
 Coordinate R2 contains atom 1 which is already in QM block.
 Coordinate R2 contains atom 3 which is already in QM block.
 Coordinate R3 contains atom 1 which is already in QM block.
 Coordinate R3 contains atom 4 which is already in QM block.
 Coordinate R4 contains atom 1 which is already in QM block.
 Coordinate R4 contains atom 5 which is already in QM block.
 Coordinate R5 contains atom 5 which is already in QM block.
 Coordinate R5 contains atom 6 which is already in QM block.
 Coordinate R6 contains atom 5 which is already in QM block.
 Coordinate R6 contains atom 7 which is already in QM block.
 Coordinate A1 contains atom 2 which is already in QM block.
 Coordinate A1 contains atom 1 which is already in QM block.
 Coordinate A1 contains atom 1 which is already in QM block.
 Coordinate A2 contains atom 2 which is already in QM block.
 Coordinate A2 contains atom 1 which is already in QM block.
 Coordinate A2 contains atom 1 which is already in QM block.
 Coordinate A3 contains atom 2 which is already in QM block.
 Coordinate A3 contains atom 1 which is already in QM block.
 Coordinate A3 contains atom 1 which is already in QM block.
 Coordinate A4 contains atom 3 which is already in QM block.
 Coordinate A4 contains atom 1 which is already in QM block.
 Coordinate A4 contains atom 1 which is already in QM block.
 Coordinate A5 contains atom 3 which is already in QM block.
 Coordinate A5 contains atom 1 which is already in QM block.
 Coordinate A5 contains atom 1 which is already in QM block.
 Coordinate A6 contains atom 4 which is already in QM block.
 Coordinate A6 contains atom 1 which is already in QM block.
 Coordinate A6 contains atom 1 which is already in QM block.
 Coordinate A7 contains atom 1 which is already in QM block.
 Coordinate A7 contains atom 5 which is already in QM block.
 Coordinate A7 contains atom 5 which is already in QM block.
 Coordinate A8 contains atom 1 which is already in QM block.
 Coordinate A8 contains atom 5 which is already in QM block.
 Coordinate A8 contains atom 5 which is already in QM block.
 Coordinate A9 contains atom 6 which is already in QM block.
 Coordinate A9 contains atom 5 which is already in QM block.
 Coordinate A9 contains atom 5 which is already in QM block.
 Coordinate D1 contains atom 2 which is already in QM block.
 Coordinate D1 contains atom 1 which is already in QM block.
 Coordinate D1 contains atom 5 which is already in QM block.
 Coordinate D1 contains atom 6 which is already in QM block.
 Coordinate D2 contains atom 2 which is already in QM block.
 Coordinate D2 contains atom 1 which is already in QM block.
 Coordinate D2 contains atom 5 which is already in QM block.
 Coordinate D2 contains atom 7 which is already in QM block.
 Coordinate D3 contains atom 3 which is already in QM block.
 Coordinate D3 contains atom 1 which is already in QM block.
 Coordinate D3 contains atom 5 which is already in QM block.
 Coordinate D3 contains atom 6 which is already in QM block.
 Coordinate D4 contains atom 3 which is already in QM block.
 Coordinate D4 contains atom 1 which is already in QM block.
 Coordinate D4 contains atom 5 which is already in QM block.
 Coordinate D4 contains atom 7 which is already in QM block.
 Coordinate D5 contains atom 4 which is already in QM block.
 Coordinate D5 contains atom 1 which is already in QM block.
 Coordinate D5 contains atom 5 which is already in QM block.
 Coordinate D5 contains atom 6 which is already in QM block.
 Coordinate D6 contains atom 4 which is already in QM block.
 Coordinate D6 contains atom 1 which is already in QM block.
 Coordinate D6 contains atom 5 which is already in QM block.
 Coordinate D6 contains atom 7 which is already in QM block.
 Saved connectivity
 I=     1 IAn=  6 IBond, RBType=     2  1.00     3  1.00     4  1.00     5  1.00
 I=     2 IAn=  1 IBond, RBType=     1  1.00
 I=     3 IAn=  1 IBond, RBType=     1  1.00
 I=     4 IAn=  1 IBond, RBType=     1  1.00
 I=     5 IAn=  6 IBond, RBType=     1  1.00     6  1.00     7  2.00
 I=     6 IAn=  1 IBond, RBType=     5  1.00
 I=     7 IAn=  8 IBond, RBType=     5  2.00
 ITRead=  0  0  0  0  0  0  0
 MicOpt= -1 -1 -1 -1 -1 -1 -1
 NAtoms=      7 NQM=        7 NQMF=       0 NMMI=      0 NMMIF=      0
                NMic=       0 NMicF=      0.
 No MM parameters found.
 Leave Link  101 at Sat Aug 10 16:32:44 2019, MaxMem=  4294967296 cpu:               5.7 elap:               0.4

 GradGradGradGradGradGradGradGradGradGradGradGradGradGradGradGradGradGrad
 Berny optimization.
 GetPCM: File not found, return IValue=0.
 Optmz: redundant internal coordinate code flag= 1
 Initialization pass.
                           ----------------------------
                           !    Initial Parameters    !
                           ! (Angstroms and Degrees)  !
 --------------------------                            --------------------------
 ! Name  Definition              Value          Derivative Info.                !
 --------------------------------------------------------------------------------
 ! R1    R(1,2)                  1.097          calculate D2E/DX2 analytically  !
 ! R2    R(1,3)                  1.0913         calculate D2E/DX2 analytically  !
 ! R3    R(1,4)                  1.097          calculate D2E/DX2 analytically  !
 ! R4    R(1,5)                  1.5072         calculate D2E/DX2 analytically  !
 ! R5    R(5,6)                  1.1145         calculate D2E/DX2 analytically  !
 ! R6    R(5,7)                  1.2106         calculate D2E/DX2 analytically  !
 ! A1    A(2,1,3)              110.0579         calculate D2E/DX2 analytically  !
 ! A2    A(2,1,4)              106.6236         calculate D2E/DX2 analytically  !
 ! A3    A(2,1,5)              109.7664         calculate D2E/DX2 analytically  !
 ! A4    A(3,1,4)              110.0579         calculate D2E/DX2 analytically  !
 ! A5    A(3,1,5)              110.4927         calculate D2E/DX2 analytically  !
 ! A6    A(4,1,5)              109.7664         calculate D2E/DX2 analytically  !
 ! A7    A(1,5,6)              114.7787         calculate D2E/DX2 analytically  !
 ! A8    A(1,5,7)              124.6308         calculate D2E/DX2 analytically  !
 ! A9    A(6,5,7)              120.5905         calculate D2E/DX2 analytically  !
 ! D1    D(2,1,5,6)            -58.4414         calculate D2E/DX2 analytically  !
 ! D2    D(2,1,5,7)            121.5586         calculate D2E/DX2 analytically  !
 ! D3    D(3,1,5,6)            180.0            calculate D2E/DX2 analytically  !
 ! D4    D(3,1,5,7)              0.0            calculate D2E/DX2 analytically  !
 ! D5    D(4,1,5,6)             58.4414         calculate D2E/DX2 analytically  !
 ! D6    D(4,1,5,7)           -121.5586         calculate D2E/DX2 analytically  !
 --------------------------------------------------------------------------------
 Maximum allowed force set to 1.00D+20.
 Trust Radius=3.00D-01 FncErr=1.00D-07 GrdErr=1.00D-07 EigMax=2.50D+02 EigMin=1.00D-04
 Number of steps in this run=      2 maximum allowed number of steps=      2.
 GradGradGradGradGradGradGradGradGradGradGradGradGradGradGradGradGradGrad

 Leave Link  103 at Sat Aug 10 16:32:44 2019, MaxMem=  4294967296 cpu:               0.1 elap:               0.0
                          Input orientation:                          
 ---------------------------------------------------------------------
 Center     Atomic      Atomic             Coordinates (Angstroms)
 Number     Number       Type             X           Y           Z
 ---------------------------------------------------------------------
      1          6           0        0.935313   -0.718656    0.000000
      2          1           0        1.589195   -0.674276   -0.879647
      3          1           0        0.370805   -1.652608    0.000000
      4          1           0        1.589195   -0.674276    0.879647
      5          6           0        0.000000    0.463222    0.000000
      6          1           0        0.503628    1.457476    0.000000
      7          8           0       -1.208088    0.384536    0.000000
 ---------------------------------------------------------------------
                    Distance matrix (angstroms):
                    1          2          3          4          5
     1  C    0.000000
     2  H    1.096955   0.000000
     3  H    1.091300   1.793150   0.000000
     4  H    1.096955   1.759294   1.793150   0.000000
     5  C    1.507198   2.143180   2.148077   2.143180   0.000000
     6  H    2.218536   2.548843   3.112919   2.548843   1.114532
     7  O    2.410643   3.117636   2.577374   3.117636   1.210648
                    6          7
     6  H    0.000000
     7  O    2.020191   0.000000
 Stoichiometry    C2H4O
 Framework group  CS[SG(C2H2O),X(H2)]
 Deg. of freedom    10
 Full point group                 CS      NOp   2
 Largest Abelian subgroup         CS      NOp   2
 Largest concise Abelian subgroup CS      NOp   2
                         Standard orientation:                         
 ---------------------------------------------------------------------
 Center     Atomic      Atomic             Coordinates (Angstroms)
 Number     Number       Type             X           Y           Z
 ---------------------------------------------------------------------
      1          6           0       -0.935313   -0.718656    0.000000
      2          1           0       -1.589195   -0.674276    0.879647
      3          1           0       -0.370806   -1.652608    0.000000
      4          1           0       -1.589195   -0.674276   -0.879647
      5          6           0       -0.000000    0.463222    0.000000
      6          1           0       -0.503628    1.457476    0.000000
      7          8           0        1.208088    0.384536    0.000000
 ---------------------------------------------------------------------
 Rotational constants (GHZ):          56.8585085          10.0902660           9.0480817
 Standard basis: 6-31G(d,p) (6D, 7F)
 There are    46 symmetry adapted cartesian basis functions of A'  symmetry.
 There are    19 symmetry adapted cartesian basis functions of A"  symmetry.
 There are    46 symmetry adapted basis functions of A'  symmetry.
 There are    19 symmetry adapted basis functions of A"  symmetry.
    65 basis functions,   112 primitive gaussians,    65 cartesian basis functions
    12 alpha electrons       12 beta electrons
       nuclear repulsion energy        69.5067215105 Hartrees.
 NAtoms=    7 NActive=    7 NUniq=    6 SFac= 1.36D+00 NAtFMM=   60 NAOKFM=F Big=F
 Integral buffers will be    131072 words long.
 Raffenetti 2 integral format.
 Two-electron integral symmetry is turned on.
 One-electron integrals computed using PRISM.
 NBasis=    65 RedAO= T EigKep=  5.49D-03  NBF=    46    19
 NBsUse=    65 1.00D-06 EigRej= -1.00D+00 NBFU=    46    19
 ExpMin= 1.61D-01 ExpMax= 5.48D+03 ExpMxC= 8.25D+02 IAcc=3 IRadAn=         5 AccDes= 0.00D+00
 Harris functional with IExCor=  402 and IRadAn=       5 diagonalized for initial guess.
 HarFok:  IExCor=  402 AccDes= 0.00D+00 IRadAn=         5 IDoV= 1 UseB2=F ITyADJ=14
 ICtDFT=  3500011 ScaDFX=  1.000000  1.000000  1.000000  1.000000
 FoFCou: FMM=F IPFlag=           0 FMFlag=      100000 FMFlg1=           0
         NFxFlg=           0 DoJE=T BraDBF=F KetDBF=T FulRan=T
         wScrn=  0.000000 ICntrl=       500 IOpCl=  0 I1Cent=   200000004 NGrid=           0
         NMat0=    1 NMatS0=      1 NMatT0=    0 NMatD0=    1 NMtDS0=    0 NMtDT0=    0
 Petite list used in FoFCou.
 Initial guess orbital symmetries:
       Occupied  (A') (A') (A') (A') (A') (A') (A') (A') (A") (A')
                 (A") (A')
       Virtual   (A") (A') (A') (A') (A") (A') (A') (A') (A") (A')
                 (A") (A') (A') (A') (A") (A') (A') (A') (A') (A")
                 (A') (A') (A") (A') (A") (A') (A") (A') (A') (A")
                 (A') (A') (A") (A") (A') (A') (A") (A') (A") (A")
                 (A') (A') (A') (A") (A') (A') (A') (A') (A") (A')
                 (A') (A') (A')
 The electronic state of the initial guess is 1-A'.
 Keep R1 ints in memory in symmetry-blocked form, NReq=16535224.
 Requested convergence on RMS density matrix=1.00D-08 within 128 cycles.
 Requested convergence on MAX density matrix=1.00D-06.
 Requested convergence on             energy=1.00D-06.
 No special actions if energy rises.
 Integral accuracy reduced to 1.0D-05 until final iterations.
 Initial convergence to 1.0D-05 achieved.  Increase integral accuracy.
 SCF Done:  E(RB3LYP) =  -153.835728221     A.U. after   12 cycles
            NFock= 12  Conv=0.85D-08     -V/T= 2.0093
 DoSCS=F DFT=T ScalE2(SS,OS)=  1.000000  1.000000
 Range of M.O.s used for correlation:     1    65
 NBasis=    65 NAE=    12 NBE=    12 NFC=     0 NFV=     0
 NROrb=     65 NOA=    12 NOB=    12 NVA=    53 NVB=    53
 Symmetrizing basis deriv contribution to polar:
 IMax=3 JMax=2 DiffMx= 0.00D+00
 G2DrvN: will do     8 centers at a time, making    1 passes.
 Calling FoFCou, ICntrl=  3107 FMM=F I1Cent=   0 AccDes= 0.00D+00.
 End of G2Drv F.D. properties file   721 does not exist.
 End of G2Drv F.D. properties file   722 does not exist.
 End of G2Drv F.D. properties file   788 does not exist.
          IDoAtm=1111111
          Differentiating once with respect to electric field.
                with respect to dipole field.
          Differentiating once with respect to nuclear coordinates.
 Keep R1 ints in memory in symmetry-blocked form, NReq=16485609.
          There are    21 degrees of freedom in the 1st order CPHF.  IDoFFX=4 NUNeed=    21.
     21 vectors produced by pass  0 Test12= 3.03D-15 4.76D-09 XBig12= 2.58D+01 3.80D+00.
 AX will form    21 AO Fock derivatives at one time.
     21 vectors produced by pass  1 Test12= 3.03D-15 4.76D-09 XBig12= 7.50D+00 7.27D-01.
     21 vectors produced by pass  2 Test12= 3.03D-15 4.76D-09 XBig12= 3.56D-02 4.90D-02.
     21 vectors produced by pass  3 Test12= 3.03D-15 4.76D-09 XBig12= 7.95D-05 1.72D-03.
     21 vectors produced by pass  4 Test12= 3.03D-15 4.76D-09 XBig12= 9.74D-08 6.39D-05.
      8 vectors produced by pass  5 Test12= 3.03D-15 4.76D-09 XBig12= 5.51D-11 1.39D-06.
      2 vectors produced by pass  6 Test12= 3.03D-15 4.76D-09 XBig12= 4.72D-14 5.27D-08.
 InvSVY:  IOpt=1 It=  1 EMax= 2.66D-15
 Solved reduced A of dimension   115 with    21 vectors.
 Isotropic polarizability for W=    0.000000       24.07 Bohr**3.
 End of Minotr F.D. properties file   721 does not exist.
 End of Minotr F.D. properties file   722 does not exist.
 End of Minotr F.D. properties file   788 does not exist.

 **********************************************************************

            Population analysis using the SCF Density.

 **********************************************************************

 Orbital symmetries:
       Occupied  (A') (A') (A') (A') (A') (A') (A') (A") (A') (A')
                 (A") (A')
       Virtual   (A") (A') (A') (A') (A") (A') (A') (A") (A') (A')
                 (A") (A') (A') (A') (A") (A') (A') (A') (A') (A")
                 (A') (A') (A") (A') (A") (A') (A") (A') (A') (A")
                 (A') (A") (A') (A") (A') (A') (A") (A') (A") (A")
                 (A') (A') (A') (A") (A') (A') (A') (A') (A") (A')
                 (A') (A') (A')
 The electronic state is 1-A'.
 Alpha  occ. eigenvalues --  -19.15066 -10.28185 -10.19838  -1.04631  -0.75399
 Alpha  occ. eigenvalues --   -0.58066  -0.47683  -0.44441  -0.43354  -0.39825
 Alpha  occ. eigenvalues --   -0.36400  -0.25500
 Alpha virt. eigenvalues --   -0.02223   0.10726   0.13093   0.15237   0.15429
 Alpha virt. eigenvalues --    0.25428   0.27923   0.52319   0.53296   0.58095
 Alpha virt. eigenvalues --    0.58867   0.66332   0.69413   0.73838   0.82736
 Alpha virt. eigenvalues --    0.83441   0.86854   0.89834   0.91076   0.98576
 Alpha virt. eigenvalues --    1.07747   1.24697   1.29544   1.44139   1.46281
 Alpha virt. eigenvalues --    1.59367   1.71074   1.76733   1.78453   1.90238
 Alpha virt. eigenvalues --    1.97888   2.01168   2.01929   2.05705   2.09162
 Alpha virt. eigenvalues --    2.23832   2.28137   2.34031   2.52331   2.57478
 Alpha virt. eigenvalues --    2.62846   2.66837   2.81600   2.85910   2.94549
 Alpha virt. eigenvalues --    2.97389   3.17654   3.39024   3.40099   3.43423
 Alpha virt. eigenvalues --    3.85531   4.17154   4.52608
          Condensed to atoms (all electrons):
               1          2          3          4          5          6
     1  C    5.209086   0.357088   0.358006   0.357088   0.305468  -0.120928
     2  H    0.357088   0.572861  -0.021707  -0.026822  -0.020217   0.004014
     3  H    0.358006  -0.021707   0.554491  -0.021707  -0.022216   0.006316
     4  H    0.357088  -0.026822  -0.021707   0.572861  -0.020217   0.004014
     5  C    0.305468  -0.020217  -0.022216  -0.020217   4.526198   0.346109
     6  H   -0.120928   0.004014   0.006316   0.004014   0.346109   0.755478
     7  O   -0.079532   0.001547   0.005534   0.001547   0.586753  -0.058378
               7
     1  C   -0.079532
     2  H    0.001547
     3  H    0.005534
     4  H    0.001547
     5  C    0.586753
     6  H   -0.058378
     7  O    7.925507
 Mulliken charges:
               1
     1  C   -0.386276
     2  H    0.133236
     3  H    0.141283
     4  H    0.133236
     5  C    0.298121
     6  H    0.063377
     7  O   -0.382977
 Sum of Mulliken charges =  -0.00000
 Mulliken charges with hydrogens summed into heavy atoms:
               1
     1  C    0.021479
     5  C    0.361498
     7  O   -0.382977
 APT charges:
               1
     1  C   -0.108107
     2  H    0.019902
     3  H    0.013233
     4  H    0.019902
     5  C    0.750183
     6  H   -0.099550
     7  O   -0.595562
 Sum of APT charges =   0.00000
 APT charges with hydrogens summed into heavy atoms:
               1
     1  C   -0.055071
     5  C    0.650633
     7  O   -0.595562
 Electronic spatial extent (au):  <R**2>=            167.4059
 Charge=              0.0000 electrons
 Dipole moment (field-independent basis, Debye):
    X=             -2.6298    Y=             -0.3153    Z=             -0.0000  Tot=              2.6487
 Quadrupole moment (field-independent basis, Debye-Ang):
   XX=            -20.5187   YY=            -17.7424   ZZ=            -17.6008
   XY=             -0.7526   XZ=              0.0000   YZ=              0.0000
 Traceless Quadrupole moment (field-independent basis, Debye-Ang):
   XX=             -1.8981   YY=              0.8782   ZZ=              1.0199
   XY=             -0.7526   XZ=              0.0000   YZ=              0.0000
 Octapole moment (field-independent basis, Debye-Ang**2):
  XXX=             -0.3130  YYY=              0.8021  ZZZ=             -0.0000  XYY=              0.9986
  XXY=             -0.9667  XXZ=             -0.0000  XZZ=              0.7358  YZZ=              0.4482
  YYZ=             -0.0000  XYZ=             -0.0000
 Hexadecapole moment (field-independent basis, Debye-Ang**3):
 XXXX=           -117.6053 YYYY=            -68.0587 ZZZZ=            -22.1672 XXXY=            -23.1348
 XXXZ=              0.0000 YYYX=            -23.9162 YYYZ=              0.0000 ZZZX=              0.0000
 ZZZY=              0.0000 XXYY=            -32.5008 XXZZ=            -20.7361 YYZZ=            -15.9136
 XXYZ=              0.0000 YYXZ=              0.0000 ZZXY=             -6.7708
 N-N= 6.950672151049D+01 E-N=-4.981933636073D+02  KE= 1.524240320466D+02
 Symmetry A'   KE= 1.467979826230D+02
 Symmetry A"   KE= 5.626049423570D+00
  Exact polarizability:  29.769   0.781  24.836  -0.000   0.000  17.591
 Approx polarizability:  47.443  -0.642  30.453   0.000   0.000  23.837
 Calling FoFJK, ICntrl=    100127 FMM=F ISym2X=1 I1Cent= 0 IOpClX= 0 NMat=1 NMatS=1 NMatT=0.
 Full mass-weighted force constant matrix:
 Low frequencies ---   -5.6228   -0.0011   -0.0011   -0.0008    2.3515   13.9294
 Low frequencies ---  155.9448  505.3195  775.9339
 Diagonal vibrational polarizability:
        1.9532631       2.5510622       0.4967686
 Harmonic frequencies (cm**-1), IR intensities (KM/Mole), Raman scattering
 activities (A**4/AMU), depolarization ratios for plane and unpolarized
 incident light, reduced masses (AMU), force constants (mDyne/A),
 and normal coordinates:
                      1                      2                      3
                     A"                     A'                     A"
 Frequencies --    155.9446               505.3195               775.9338
 Red. masses --      1.2395                 2.5215                 1.1228
 Frc consts  --      0.0178                 0.3793                 0.3983
 IR Inten    --      0.2740                12.9928                 0.7027
  Atom  AN      X      Y      Z        X      Y      Z        X      Y      Z
     1   6     0.00   0.00   0.00    -0.15  -0.06  -0.00     0.00   0.00  -0.07
     2   1     0.44  -0.19   0.34    -0.16   0.29  -0.02     0.29   0.41   0.14
     3   1     0.00   0.00  -0.43    -0.66  -0.37  -0.00     0.00   0.00   0.27
     4   1    -0.44   0.19   0.34    -0.16   0.29   0.02    -0.29  -0.41   0.14
     5   6    -0.00   0.00  -0.11     0.09  -0.19  -0.00     0.00   0.00  -0.06
     6   1     0.00   0.00  -0.32    -0.11  -0.27   0.00     0.00   0.00   0.62
     7   8    -0.00  -0.00   0.08     0.12   0.19   0.00    -0.00  -0.00   0.03
                      4                      5                      6
                     A'                     A'                     A"
 Frequencies --    889.2974              1129.4666              1138.8314
 Red. masses --      2.1494                 2.0896                 1.7682
 Frc consts  --      1.0015                 1.5705                 1.3512
 IR Inten    --      8.2503                24.9279                 1.3219
  Atom  AN      X      Y      Z        X      Y      Z        X      Y      Z
     1   6     0.23   0.11  -0.00     0.08  -0.18   0.00     0.00  -0.00  -0.14
     2   1     0.19   0.55  -0.05    -0.08   0.23  -0.12     0.32   0.26   0.10
     3   1    -0.20  -0.13   0.00    -0.60  -0.58  -0.00    -0.00  -0.00   0.29
     4   1     0.19   0.55   0.05    -0.08   0.23   0.12    -0.32  -0.26   0.10
     5   6    -0.07  -0.14  -0.00     0.02   0.24  -0.00     0.00   0.00   0.22
     6   1    -0.31  -0.25   0.00    -0.01   0.23   0.00     0.00   0.00  -0.70
     7   8    -0.11  -0.03  -0.00    -0.02  -0.05   0.00    -0.00  -0.00  -0.05
                      7                      8                      9
                     A'                     A'                     A'
 Frequencies --   1387.5592              1438.1460              1473.3723
 Red. masses --      1.2627                 1.2043                 1.0560
 Frc consts  --      1.4324                 1.4676                 1.3507
 IR Inten    --     19.4262                11.7470                16.0277
  Atom  AN      X      Y      Z        X      Y      Z        X      Y      Z
     1   6    -0.08  -0.12   0.00     0.05   0.00  -0.00    -0.02   0.05   0.00
     2   1     0.29   0.47   0.23    -0.12  -0.01  -0.13     0.46  -0.22   0.35
     3   1     0.41   0.18  -0.00    -0.08  -0.07   0.00    -0.41  -0.20  -0.00
     4   1     0.29   0.47  -0.23    -0.12  -0.01   0.13     0.46  -0.22  -0.35
     5   6     0.00   0.01   0.00    -0.02  -0.08  -0.00     0.01  -0.00   0.00
     6   1     0.22   0.13   0.00     0.89   0.35  -0.00     0.12   0.05  -0.00
     7   8    -0.01   0.01  -0.00    -0.06   0.04   0.00    -0.03   0.00  -0.00
                     10                     11                     12
                     A"                     A'                     A'
 Frequencies --   1484.8962              1840.5835              2883.7948
 Red. masses --      1.0474                 9.1474                 1.0835
 Frc consts  --      1.3607                18.2582                 5.3091
 IR Inten    --      9.0501               156.0090               133.9880
  Atom  AN      X      Y      Z        X      Y      Z        X      Y      Z
     1   6    -0.00   0.00  -0.05    -0.05  -0.01  -0.00    -0.00   0.00  -0.00
     2   1     0.09  -0.47   0.05    -0.15  -0.07  -0.08     0.02  -0.01  -0.03
     3   1    -0.00  -0.00   0.72     0.22   0.13  -0.00     0.01  -0.01  -0.00
     4   1    -0.09   0.47   0.05    -0.15  -0.07   0.08     0.02  -0.01   0.03
     5   6     0.00  -0.00  -0.03     0.68   0.01   0.00     0.03  -0.08  -0.00
     6   1     0.00   0.00   0.08    -0.23  -0.38  -0.00    -0.43   0.90  -0.00
     7   8    -0.00  -0.00   0.00    -0.45   0.03  -0.00     0.00   0.00   0.00
                     13                     14                     15
                     A'                     A"                     A'
 Frequencies --   3038.2506              3098.5318              3162.0950
 Red. masses --      1.0374                 1.0990                 1.1029
 Frc consts  --      5.6419                 6.2170                 6.4971
 IR Inten    --      2.2209                 8.6550                 9.6572
  Atom  AN      X      Y      Z        X      Y      Z        X      Y      Z
     1   6     0.05   0.02   0.00     0.00  -0.00  -0.09     0.06  -0.07   0.00
     2   1    -0.37   0.03   0.52    -0.43   0.03   0.56    -0.16   0.00   0.23
     3   1     0.22  -0.34   0.00    -0.00   0.00  -0.02    -0.47   0.78   0.00
     4   1    -0.37   0.03  -0.52     0.43  -0.03   0.56    -0.16   0.00  -0.23
     5   6     0.00  -0.00   0.00    -0.00   0.00  -0.00     0.00  -0.00  -0.00
     6   1    -0.01   0.04   0.00     0.00  -0.00   0.00    -0.01   0.03   0.00
     7   8    -0.00   0.00   0.00     0.00  -0.00  -0.00    -0.00   0.00  -0.00

 -------------------
 - Thermochemistry -
 -------------------
 Temperature   298.150 Kelvin.  Pressure   1.00000 Atm.
 Atom     1 has atomic number  6 and mass  12.00000
 Atom     2 has atomic number  1 and mass   1.00783
 Atom     3 has atomic number  1 and mass   1.00783
 Atom     4 has atomic number  1 and mass   1.00783
 Atom     5 has atomic number  6 and mass  12.00000
 Atom     6 has atomic number  1 and mass   1.00783
 Atom     7 has atomic number  8 and mass  15.99491
 Molecular mass:    44.02621 amu.
 Principal axes and moments of inertia in atomic units:
                           1         2         3
     Eigenvalues --    31.74092 178.85963 199.46120
           X            0.87625  -0.48186   0.00000
           Y            0.48186   0.87625   0.00000
           Z           -0.00000   0.00000   1.00000
 This molecule is an asymmetric top.
 Rotational symmetry number  1.
 Rotational temperatures (Kelvin)      2.72878     0.48426     0.43424
 Rotational constants (GHZ):          56.85851    10.09027     9.04808
 Zero-point vibrational energy     145956.5 (Joules/Mol)
                                   34.88444 (Kcal/Mol)
 Warning -- explicit consideration of   2 degrees of freedom as
           vibrations may cause significant error
 Vibrational temperatures:    224.37   727.04  1116.40  1279.50  1625.05
          (Kelvin)           1638.52  1996.39  2069.17  2119.85  2136.43
                             2648.19  4149.14  4371.36  4458.10  4549.55
 
 Zero-point correction=                           0.055592 (Hartree/Particle)
 Thermal correction to Energy=                    0.059489
 Thermal correction to Enthalpy=                  0.060433
 Thermal correction to Gibbs Free Energy=         0.030636
 Sum of electronic and zero-point Energies=           -153.780136
 Sum of electronic and thermal Energies=              -153.776239
 Sum of electronic and thermal Enthalpies=            -153.775295
 Sum of electronic and thermal Free Energies=         -153.805092
 
                     E (Thermal)             CV                S
                      KCal/Mol        Cal/Mol-Kelvin    Cal/Mol-Kelvin
 Total                   37.330             11.193             62.714
 Electronic               0.000              0.000              0.000
 Translational            0.889              2.981             37.273
 Rotational               0.889              2.981             21.654
 Vibrational             35.553              5.231              3.788
 Vibration     1          0.620              1.896              2.598
 Vibration     2          0.861              1.238              0.645
                       Q            Log10(Q)             Ln(Q)
 Total Bot       0.809990D-14        -14.091520        -32.446924
 Total V=0       0.301270D+12         11.478955         26.431272
 Vib (Bot)       0.585623D-25        -25.232382        -58.099706
 Vib (Bot)    1  0.129799D+01          0.113271          0.260816
 Vib (Bot)    2  0.323707D+00         -0.489848         -1.127918
 Vib (V=0)       0.217818D+01          0.338094          0.778490
 Vib (V=0)    1  0.189096D+01          0.276683          0.637086
 Vib (V=0)    2  0.109564D+01          0.039668          0.091338
 Electronic      0.100000D+01          0.000000          0.000000
 Translational   0.114821D+08          7.060021         16.256299
 Rotational      0.120459D+05          4.080841          9.396483
                           ----------------------------
                           ! Normal Mode     1        !
 --------------------------                            --------------------------
 ! Name  Definition              Value          Relative Weight (%)             !
 --------------------------------------------------------------------------------
 ! R1    R(1,2)                  0.0042                  0.2                    !
 ! R2    R(1,3)                  0.0                     0.0                    !
 ! R3    R(1,4)                 -0.0042                  0.2                    !
 ! R4    R(1,5)                  0.0                     0.0                    !
 ! R5    R(5,6)                  0.0                     0.0                    !
 ! R6    R(5,7)                  0.0                     0.0                    !
 ! A1    A(2,1,3)               -0.0228                  0.9                    !
 ! A2    A(2,1,4)                0.0                     0.0                    !
 ! A3    A(2,1,5)               -0.0291                  1.2                    !
 ! A4    A(3,1,4)                0.0228                  0.9                    !
 ! A5    A(3,1,5)                0.0                     0.0                    !
 ! A6    A(4,1,5)                0.0291                  1.2                    !
 ! A7    A(1,5,6)                0.0                     0.0                    !
 ! A8    A(1,5,7)                0.0                     0.0                    !
 ! A9    A(6,5,7)                0.0                     0.0                    !
 ! D1    D(2,1,5,6)             -0.3778                 15.8                    !
 ! D2    D(2,1,5,7)             -0.4152                 17.3                    !
 ! D3    D(3,1,5,6)             -0.3301                 13.8                    !
 ! D4    D(3,1,5,7)             -0.3675                 15.3                    !
 ! D5    D(4,1,5,6)             -0.3778                 15.8                    !
 ! D6    D(4,1,5,7)             -0.4152                 17.3                    !
 --------------------------------------------------------------------------------
                           ----------------------------
                           ! Normal Mode     2        !
 --------------------------                            --------------------------
 ! Name  Definition              Value          Relative Weight (%)             !
 --------------------------------------------------------------------------------
 ! R1    R(1,2)                  0.0028                  0.2                    !
 ! R2    R(1,3)                 -0.0007                  0.1                    !
 ! R3    R(1,4)                  0.0028                  0.2                    !
 ! R4    R(1,5)                  0.0552                  4.2                    !
 ! R5    R(5,6)                  0.0091                  0.7                    !
 ! R6    R(5,7)                  0.003                   0.2                    !
 ! A1    A(2,1,3)                0.0073                  0.6                    !
 ! A2    A(2,1,4)               -0.0295                  2.3                    !
 ! A3    A(2,1,5)               -0.094                   7.2                    !
 ! A4    A(3,1,4)                0.0073                  0.6                    !
 ! A5    A(3,1,5)                0.193                  14.8                    !
 ! A6    A(4,1,5)               -0.094                   7.2                    !
 ! A7    A(1,5,6)               -0.1953                 14.9                    !
 ! A8    A(1,5,7)                0.2581                 19.8                    !
 ! A9    A(6,5,7)               -0.0628                  4.8                    !
 ! D1    D(2,1,5,6)              0.0729                  5.6                    !
 ! D2    D(2,1,5,7)              0.0729                  5.6                    !
 ! D3    D(3,1,5,6)              0.0                     0.0                    !
 ! D4    D(3,1,5,7)              0.0                     0.0                    !
 ! D5    D(4,1,5,6)             -0.0729                  5.6                    !
 ! D6    D(4,1,5,7)             -0.0729                  5.6                    !
 --------------------------------------------------------------------------------
                           ----------------------------
                           ! Normal Mode     3        !
 --------------------------                            --------------------------
 ! Name  Definition              Value          Relative Weight (%)             !
 --------------------------------------------------------------------------------
 ! R1    R(1,2)                  0.0101                  0.5                    !
 ! R2    R(1,3)                  0.0                     0.0                    !
 ! R3    R(1,4)                 -0.0101                  0.5                    !
 ! R4    R(1,5)                  0.0                     0.0                    !
 ! R5    R(5,6)                  0.0                     0.0                    !
 ! R6    R(5,7)                  0.0                     0.0                    !
 ! A1    A(2,1,3)               -0.0414                  2.0                    !
 ! A2    A(2,1,4)                0.0                     0.0                    !
 ! A3    A(2,1,5)               -0.2594                 12.4                    !
 ! A4    A(3,1,4)                0.0414                  2.0                    !
 ! A5    A(3,1,5)                0.0                     0.0                    !
 ! A6    A(4,1,5)                0.2594                 12.4                    !
 ! A7    A(1,5,6)                0.0                     0.0                    !
 ! A8    A(1,5,7)                0.0                     0.0                    !
 ! A9    A(6,5,7)                0.0                     0.0                    !
 ! D1    D(2,1,5,6)              0.3099                 14.8                    !
 ! D2    D(2,1,5,7)             -0.0943                  4.5                    !
 ! D3    D(3,1,5,6)              0.5327                 25.5                    !
 ! D4    D(3,1,5,7)              0.1285                  6.1                    !
 ! D5    D(4,1,5,6)              0.3099                 14.8                    !
 ! D6    D(4,1,5,7)             -0.0943                  4.5                    !
 --------------------------------------------------------------------------------
                           ----------------------------
                           ! Normal Mode     4        !
 --------------------------                            --------------------------
 ! Name  Definition              Value          Relative Weight (%)             !
 --------------------------------------------------------------------------------
 ! R1    R(1,2)                  0.0032                  0.1                    !
 ! R2    R(1,3)                 -0.0111                  0.5                    !
 ! R3    R(1,4)                  0.0032                  0.1                    !
 ! R4    R(1,5)                 -0.381                  18.0                    !
 ! R5    R(5,6)                  0.0104                  0.5                    !
 ! R6    R(5,7)                 -0.041                   1.9                    !
 ! A1    A(2,1,3)                0.0793                  3.7                    !
 ! A2    A(2,1,4)               -0.0797                  3.8                    !
 ! A3    A(2,1,5)               -0.179                   8.4                    !
 ! A4    A(3,1,4)                0.0793                  3.7                    !
 ! A5    A(3,1,5)                0.2638                 12.4                    !
 ! A6    A(4,1,5)               -0.179                   8.4                    !
 ! A7    A(1,5,6)               -0.0996                  4.7                    !
 ! A8    A(1,5,7)                0.0203                  1.0                    !
 ! A9    A(6,5,7)                0.0793                  3.7                    !
 ! D1    D(2,1,5,6)              0.153                   7.2                    !
 ! D2    D(2,1,5,7)              0.153                   7.2                    !
 ! D3    D(3,1,5,6)              0.0                     0.0                    !
 ! D4    D(3,1,5,7)              0.0                     0.0                    !
 ! D5    D(4,1,5,6)             -0.153                   7.2                    !
 ! D6    D(4,1,5,7)             -0.153                   7.2                    !
 --------------------------------------------------------------------------------
                           ----------------------------
                           ! Normal Mode     5        !
 --------------------------                            --------------------------
 ! Name  Definition              Value          Relative Weight (%)             !
 --------------------------------------------------------------------------------
 ! R1    R(1,2)                  0.0119                  0.4                    !
 ! R2    R(1,3)                 -0.0052                  0.2                    !
 ! R3    R(1,4)                  0.0119                  0.4                    !
 ! R4    R(1,5)                  0.2883                 10.3                    !
 ! R5    R(5,6)                  0.0101                  0.4                    !
 ! R6    R(5,7)                 -0.0234                  0.8                    !
 ! A1    A(2,1,3)                0.0156                  0.6                    !
 ! A2    A(2,1,4)               -0.2079                  7.4                    !
 ! A3    A(2,1,5)               -0.1716                  6.1                    !
 ! A4    A(3,1,4)                0.0156                  0.6                    !
 ! A5    A(3,1,5)                0.4915                 17.6                    !
 ! A6    A(4,1,5)               -0.1716                  6.1                    !
 ! A7    A(1,5,6)                0.094                   3.4                    !
 ! A8    A(1,5,7)               -0.2335                  8.3                    !
 ! A9    A(6,5,7)                0.1396                  5.0                    !
 ! D1    D(2,1,5,6)              0.2265                  8.1                    !
 ! D2    D(2,1,5,7)              0.2265                  8.1                    !
 ! D3    D(3,1,5,6)              0.0                     0.0                    !
 ! D4    D(3,1,5,7)              0.0                     0.0                    !
 ! D5    D(4,1,5,6)             -0.2265                  8.1                    !
 ! D6    D(4,1,5,7)             -0.2265                  8.1                    !
 --------------------------------------------------------------------------------
                           ----------------------------
                           ! Normal Mode     6        !
 --------------------------                            --------------------------
 ! Name  Definition              Value          Relative Weight (%)             !
 --------------------------------------------------------------------------------
 ! R1    R(1,2)                  0.0148                  0.5                    !
 ! R2    R(1,3)                  0.0                     0.0                    !
 ! R3    R(1,4)                 -0.0148                  0.5                    !
 ! R4    R(1,5)                  0.0                     0.0                    !
 ! R5    R(5,6)                  0.0                     0.0                    !
 ! R6    R(5,7)                  0.0                     0.0                    !
 ! A1    A(2,1,3)               -0.151                   4.6                    !
 ! A2    A(2,1,4)                0.0                     0.0                    !
 ! A3    A(2,1,5)               -0.3145                  9.7                    !
 ! A4    A(3,1,4)                0.151                   4.6                    !
 ! A5    A(3,1,5)                0.0                     0.0                    !
 ! A6    A(4,1,5)                0.3145                  9.7                    !
 ! A7    A(1,5,6)                0.0                     0.0                    !
 ! A8    A(1,5,7)                0.0                     0.0                    !
 ! A9    A(6,5,7)                0.0                     0.0                    !
 ! D1    D(2,1,5,6)             -0.6633                 20.4                    !
 ! D2    D(2,1,5,7)              0.099                   3.0                    !
 ! D3    D(3,1,5,6)             -0.2671                  8.2                    !
 ! D4    D(3,1,5,7)              0.4953                 15.2                    !
 ! D5    D(4,1,5,6)             -0.6633                 20.4                    !
 ! D6    D(4,1,5,7)              0.099                   3.0                    !
 --------------------------------------------------------------------------------
                           ----------------------------
                           ! Normal Mode     7        !
 --------------------------                            --------------------------
 ! Name  Definition              Value          Relative Weight (%)             !
 --------------------------------------------------------------------------------
 ! R1    R(1,2)                 -0.0118                  0.5                    !
 ! R2    R(1,3)                 -0.0055                  0.2                    !
 ! R3    R(1,4)                 -0.0118                  0.5                    !
 ! R4    R(1,5)                  0.1602                  6.2                    !
 ! R5    R(5,6)                  0.0063                  0.2                    !
 ! R6    R(5,7)                 -0.0146                  0.6                    !
 ! A1    A(2,1,3)                0.3122                 12.2                    !
 ! A2    A(2,1,4)                0.3886                 15.1                    !
 ! A3    A(2,1,5)               -0.3571                 13.9                    !
 ! A4    A(3,1,4)                0.3122                 12.2                    !
 ! A5    A(3,1,5)               -0.2789                 10.9                    !
 ! A6    A(4,1,5)               -0.3571                 13.9                    !
 ! A7    A(1,5,6)                0.1218                  4.7                    !
 ! A8    A(1,5,7)               -0.0082                  0.3                    !
 ! A9    A(6,5,7)               -0.1136                  4.4                    !
 ! D1    D(2,1,5,6)             -0.0267                  1.0                    !
 ! D2    D(2,1,5,7)             -0.0267                  1.0                    !
 ! D3    D(3,1,5,6)              0.0                     0.0                    !
 ! D4    D(3,1,5,7)              0.0                     0.0                    !
 ! D5    D(4,1,5,6)              0.0267                  1.0                    !
 ! D6    D(4,1,5,7)              0.0267                  1.0                    !
 --------------------------------------------------------------------------------
                           ----------------------------
                           ! Normal Mode     8        !
 --------------------------                            --------------------------
 ! Name  Definition              Value          Relative Weight (%)             !
 --------------------------------------------------------------------------------
 ! R1    R(1,2)                  0.0003                  0.0                    !
 ! R2    R(1,3)                 -0.0024                  0.1                    !
 ! R3    R(1,4)                  0.0003                  0.0                    !
 ! R4    R(1,5)                 -0.1107                  5.5                    !
 ! R5    R(5,6)                 -0.0264                  1.3                    !
 ! R6    R(5,7)                 -0.0555                  2.7                    !
 ! A1    A(2,1,3)                0.0022                  0.1                    !
 ! A2    A(2,1,4)               -0.2087                 10.3                    !
 ! A3    A(2,1,5)                0.061                   3.0                    !
 ! A4    A(3,1,4)                0.0022                  0.1                    !
 ! A5    A(3,1,5)                0.0735                  3.6                    !
 ! A6    A(4,1,5)                0.061                   3.0                    !
 ! A7    A(1,5,6)                0.4755                 23.5                    !
 ! A8    A(1,5,7)                0.0529                  2.6                    !
 ! A9    A(6,5,7)               -0.5284                 26.1                    !
 ! D1    D(2,1,5,6)              0.0909                  4.5                    !
 ! D2    D(2,1,5,7)              0.0909                  4.5                    !
 ! D3    D(3,1,5,6)              0.0                     0.0                    !
 ! D4    D(3,1,5,7)              0.0                     0.0                    !
 ! D5    D(4,1,5,6)             -0.0909                  4.5                    !
 ! D6    D(4,1,5,7)             -0.0909                  4.5                    !
 --------------------------------------------------------------------------------
                           ----------------------------
                           ! Normal Mode     9        !
 --------------------------                            --------------------------
 ! Name  Definition              Value          Relative Weight (%)             !
 --------------------------------------------------------------------------------
 ! R1    R(1,2)                 -0.0126                  0.4                    !
 ! R2    R(1,3)                  0.0133                  0.4                    !
 ! R3    R(1,4)                 -0.0126                  0.4                    !
 ! R4    R(1,5)                 -0.0202                  0.6                    !
 ! R5    R(5,6)                  0.0007                  0.0                    !
 ! R6    R(5,7)                 -0.0438                  1.4                    !
 ! A1    A(2,1,3)               -0.3612                 11.4                    !
 ! A2    A(2,1,4)                0.5887                 18.6                    !
 ! A3    A(2,1,5)               -0.0298                  0.9                    !
 ! A4    A(3,1,4)               -0.3612                 11.4                    !
 ! A5    A(3,1,5)                0.2023                  6.4                    !
 ! A6    A(4,1,5)               -0.0298                  0.9                    !
 ! A7    A(1,5,6)                0.0395                  1.3                    !
 ! A8    A(1,5,7)                0.0218                  0.7                    !
 ! A9    A(6,5,7)               -0.0613                  1.9                    !
 ! D1    D(2,1,5,6)             -0.3396                 10.8                    !
 ! D2    D(2,1,5,7)             -0.3396                 10.8                    !
 ! D3    D(3,1,5,6)              0.0                     0.0                    !
 ! D4    D(3,1,5,7)              0.0                     0.0                    !
 ! D5    D(4,1,5,6)              0.3396                 10.8                    !
 ! D6    D(4,1,5,7)              0.3396                 10.8                    !
 --------------------------------------------------------------------------------
                           ----------------------------
                           ! Normal Mode    10        !
 --------------------------                            --------------------------
 ! Name  Definition              Value          Relative Weight (%)             !
 --------------------------------------------------------------------------------
 ! R1    R(1,2)                  0.0123                  0.4                    !
 ! R2    R(1,3)                  0.0                     0.0                    !
 ! R3    R(1,4)                 -0.0123                  0.4                    !
 ! R4    R(1,5)                  0.0                     0.0                    !
 ! R5    R(5,6)                  0.0                     0.0                    !
 ! R6    R(5,7)                  0.0                     0.0                    !
 ! A1    A(2,1,3)               -0.5557                 18.7                    !
 ! A2    A(2,1,4)                0.0                     0.0                    !
 ! A3    A(2,1,5)                0.1488                  5.0                    !
 ! A4    A(3,1,4)                0.5557                 18.7                    !
 ! A5    A(3,1,5)                0.0                     0.0                    !
 ! A6    A(4,1,5)               -0.1488                  5.0                    !
 ! A7    A(1,5,6)                0.0                     0.0                    !
 ! A8    A(1,5,7)                0.0                     0.0                    !
 ! A9    A(6,5,7)                0.0                     0.0                    !
 ! D1    D(2,1,5,6)             -0.1387                  4.7                    !
 ! D2    D(2,1,5,7)             -0.1993                  6.7                    !
 ! D3    D(3,1,5,6)              0.4581                 15.4                    !
 ! D4    D(3,1,5,7)              0.3975                 13.4                    !
 ! D5    D(4,1,5,6)             -0.1387                  4.7                    !
 ! D6    D(4,1,5,7)             -0.1993                  6.7                    !
 --------------------------------------------------------------------------------
                           ----------------------------
                           ! Normal Mode    11        !
 --------------------------                            --------------------------
 ! Name  Definition              Value          Relative Weight (%)             !
 --------------------------------------------------------------------------------
 ! R1    R(1,2)                 -0.007                   0.2                    !
 ! R2    R(1,3)                  0.022                   0.5                    !
 ! R3    R(1,4)                 -0.007                   0.2                    !
 ! R4    R(1,5)                  0.4614                 11.4                    !
 ! R5    R(5,6)                  0.0629                  1.6                    !
 ! R6    R(5,7)                 -1.1279                 27.9                    !
 ! A1    A(2,1,3)                0.0777                  1.9                    !
 ! A2    A(2,1,4)               -0.1229                  3.0                    !
 ! A3    A(2,1,5)                0.161                   4.0                    !
 ! A4    A(3,1,4)                0.0777                  1.9                    !
 ! A5    A(3,1,5)               -0.3424                  8.5                    !
 ! A6    A(4,1,5)                0.161                   4.0                    !
 ! A7    A(1,5,6)               -0.6668                 16.5                    !
 ! A8    A(1,5,7)                0.1748                  4.3                    !
 ! A9    A(6,5,7)                0.492                  12.2                    !
 ! D1    D(2,1,5,6)             -0.0196                  0.5                    !
 ! D2    D(2,1,5,7)             -0.0196                  0.5                    !
 ! D3    D(3,1,5,6)              0.0                     0.0                    !
 ! D4    D(3,1,5,7)              0.0                     0.0                    !
 ! D5    D(4,1,5,6)              0.0196                  0.5                    !
 ! D6    D(4,1,5,7)              0.0196                  0.5                    !
 --------------------------------------------------------------------------------
                           ----------------------------
                           ! Normal Mode    12        !
 --------------------------                            --------------------------
 ! Name  Definition              Value          Relative Weight (%)             !
 --------------------------------------------------------------------------------
 ! R1    R(1,2)                 -0.0396                  2.7                    !
 ! R2    R(1,3)                  0.0124                  0.8                    !
 ! R3    R(1,4)                 -0.0396                  2.7                    !
 ! R4    R(1,5)                 -0.0394                  2.7                    !
 ! R5    R(5,6)                  1.0774                 73.2                    !
 ! R6    R(5,7)                 -0.0354                  2.4                    !
 ! A1    A(2,1,3)               -0.0024                  0.2                    !
 ! A2    A(2,1,4)               -0.0023                  0.2                    !
 ! A3    A(2,1,5)                0.0184                  1.2                    !
 ! A4    A(3,1,4)               -0.0024                  0.2                    !
 ! A5    A(3,1,5)               -0.0283                  1.9                    !
 ! A6    A(4,1,5)                0.0184                  1.2                    !
 ! A7    A(1,5,6)               -0.0129                  0.9                    !
 ! A8    A(1,5,7)                0.0594                  4.0                    !
 ! A9    A(6,5,7)               -0.0465                  3.2                    !
 ! D1    D(2,1,5,6)             -0.0093                  0.6                    !
 ! D2    D(2,1,5,7)             -0.0093                  0.6                    !
 ! D3    D(3,1,5,6)              0.0                     0.0                    !
 ! D4    D(3,1,5,7)              0.0                     0.0                    !
 ! D5    D(4,1,5,6)              0.0093                  0.6                    !
 ! D6    D(4,1,5,7)              0.0093                  0.6                    !
 --------------------------------------------------------------------------------
                           ----------------------------
                           ! Normal Mode    13        !
 --------------------------                            --------------------------
 ! Name  Definition              Value          Relative Weight (%)             !
 --------------------------------------------------------------------------------
 ! R1    R(1,2)                  0.6702                 33.6                    !
 ! R2    R(1,3)                  0.4041                 20.3                    !
 ! R3    R(1,4)                  0.6702                 33.6                    !
 ! R4    R(1,5)                 -0.0503                  2.5                    !
 ! R5    R(5,6)                  0.0462                  2.3                    !
 ! R6    R(5,7)                 -0.0021                  0.1                    !
 ! A1    A(2,1,3)               -0.0162                  0.8                    !
 ! A2    A(2,1,4)               -0.0223                  1.1                    !
 ! A3    A(2,1,5)                0.013                   0.7                    !
 ! A4    A(3,1,4)               -0.0162                  0.8                    !
 ! A5    A(3,1,5)                0.0269                  1.4                    !
 ! A6    A(4,1,5)                0.013                   0.7                    !
 ! A7    A(1,5,6)                0.009                   0.5                    !
 ! A8    A(1,5,7)               -0.0037                  0.2                    !
 ! A9    A(6,5,7)               -0.0053                  0.3                    !
 ! D1    D(2,1,5,6)              0.0059                  0.3                    !
 ! D2    D(2,1,5,7)              0.0059                  0.3                    !
 ! D3    D(3,1,5,6)              0.0                     0.0                    !
 ! D4    D(3,1,5,7)              0.0                     0.0                    !
 ! D5    D(4,1,5,6)             -0.0059                  0.3                    !
 ! D6    D(4,1,5,7)             -0.0059                  0.3                    !
 --------------------------------------------------------------------------------
                           ----------------------------
                           ! Normal Mode    14        !
 --------------------------                            --------------------------
 ! Name  Definition              Value          Relative Weight (%)             !
 --------------------------------------------------------------------------------
 ! R1    R(1,2)                  0.777                  40.9                    !
 ! R2    R(1,3)                  0.0                     0.0                    !
 ! R3    R(1,4)                 -0.777                  40.9                    !
 ! R4    R(1,5)                  0.0                     0.0                    !
 ! R5    R(5,6)                  0.0                     0.0                    !
 ! R6    R(5,7)                  0.0                     0.0                    !
 ! A1    A(2,1,3)               -0.0408                  2.1                    !
 ! A2    A(2,1,4)                0.0                     0.0                    !
 ! A3    A(2,1,5)               -0.0367                  1.9                    !
 ! A4    A(3,1,4)                0.0408                  2.1                    !
 ! A5    A(3,1,5)                0.0                     0.0                    !
 ! A6    A(4,1,5)                0.0367                  1.9                    !
 ! A7    A(1,5,6)                0.0                     0.0                    !
 ! A8    A(1,5,7)                0.0                     0.0                    !
 ! A9    A(6,5,7)                0.0                     0.0                    !
 ! D1    D(2,1,5,6)             -0.0389                  2.0                    !
 ! D2    D(2,1,5,7)             -0.0033                  0.2                    !
 ! D3    D(3,1,5,6)              0.0364                  1.9                    !
 ! D4    D(3,1,5,7)              0.0719                  3.8                    !
 ! D5    D(4,1,5,6)             -0.0389                  2.0                    !
 ! D6    D(4,1,5,7)             -0.0033                  0.2                    !
 --------------------------------------------------------------------------------
                           ----------------------------
                           ! Normal Mode    15        !
 --------------------------                            --------------------------
 ! Name  Definition              Value          Relative Weight (%)             !
 --------------------------------------------------------------------------------
 ! R1    R(1,2)                  0.3169                 15.0                    !
 ! R2    R(1,3)                 -1.006                  47.5                    !
 ! R3    R(1,4)                  0.3169                 15.0                    !
 ! R4    R(1,5)                  0.0118                  0.6                    !
 ! R5    R(5,6)                  0.0334                  1.6                    !
 ! R6    R(5,7)                 -0.0044                  0.2                    !
 ! A1    A(2,1,3)                0.0277                  1.3                    !
 ! A2    A(2,1,4)               -0.0427                  2.0                    !
 ! A3    A(2,1,5)               -0.0287                  1.4                    !
 ! A4    A(3,1,4)                0.0277                  1.3                    !
 ! A5    A(3,1,5)                0.0413                  2.0                    !
 ! A6    A(4,1,5)               -0.0287                  1.4                    !
 ! A7    A(1,5,6)                0.0312                  1.5                    !
 ! A8    A(1,5,7)               -0.0297                  1.4                    !
 ! A9    A(6,5,7)               -0.0015                  0.1                    !
 ! D1    D(2,1,5,6)              0.0426                  2.0                    !
 ! D2    D(2,1,5,7)              0.0426                  2.0                    !
 ! D3    D(3,1,5,6)              0.0                     0.0                    !
 ! D4    D(3,1,5,7)              0.0                     0.0                    !
 ! D5    D(4,1,5,6)             -0.0426                  2.0                    !
 ! D6    D(4,1,5,7)             -0.0426                  2.0                    !
 --------------------------------------------------------------------------------
 Max01P=     16 Av01P=   11.27 Stan. Dev.=    2.37
 Max05P=     10 Av05P=    5.73 Stan. Dev.=    2.69
 Max10P=      7 Av10P=    3.60 Stan. Dev.=    1.72
 MaxNDP=     21 AvNDP=   21.00 Stan. Dev.=    0.00
 ***** Axes restored to original set *****
 -------------------------------------------------------------------
 Center     Atomic                   Forces (Hartrees/Bohr)
 Number     Number              X              Y              Z
 -------------------------------------------------------------------
      1        6           0.000041756   -0.000055528   -0.000000000
      2        1          -0.000020034    0.000009467   -0.000001816
      3        1           0.000015266    0.000028241   -0.000000000
      4        1          -0.000020034    0.000009467    0.000001816
      5        6           0.000104495    0.000076274   -0.000000000
      6        1          -0.000043276   -0.000084478   -0.000000000
      7        8          -0.000078173    0.000016557   -0.000000000
 -------------------------------------------------------------------
 Cartesian Forces:  Max     0.000104495 RMS     0.000043082
 FormGI is forming the generalized inverse of G from B-inverse, IUseBI=4.

 GradGradGradGradGradGradGradGradGradGradGradGradGradGradGradGradGradGrad
 Berny optimization.
 GetPCM: File not found, return IValue=0.
 Optmz: redundant internal coordinate code flag= 1
 IB Matrix in FormBX:
              1            2            3            4            5
     1            1            1            1            1            5
     2            2            3            4            5            6
     3            0            0            0            0            0
     4            0            0            0            0            0
              6            7            8            9           10
     1            5            2            2            2            3
     2            7            1            1            1            1
     3            0            3            4            5            4
     4            0            0            0            0            0
             11           12           13           14           15
     1            3            4            1            1            6
     2            1            1            5            5            5
     3            5            5            6            7            7
     4            0            0            0            0            0
             16           17           18           19           20
     1            2            2            3            3            4
     2            1            1            1            1            1
     3            5            5            5            5            5
     4            6            7            6            7            6
             21
     1            4
     2            1
     3            5
     4            7
 B Matrix in FormBX:
                 1             2             3             4             5 
      1  -0.596088D+00  0.517280D+00 -0.596088D+00  0.620564D+00 -0.451874D+00
      2  -0.404575D-01  0.855816D+00 -0.404575D-01 -0.784156D+00 -0.892082D+00
      3   0.801899D+00  0.000000D+00 -0.801899D+00  0.000000D+00  0.000000D+00
      4   0.596088D+00 -0.517280D+00  0.596088D+00 -0.620564D+00  0.451874D+00
      5   0.404575D-01 -0.855816D+00  0.404575D-01  0.784156D+00  0.892082D+00
      6  -0.801899D+00  0.000000D+00  0.801899D+00  0.000000D+00  0.000000D+00
      7   0.000000D+00  0.000000D+00  0.000000D+00  0.000000D+00  0.000000D+00
      8   0.000000D+00  0.000000D+00  0.000000D+00  0.000000D+00  0.000000D+00
      9   0.000000D+00  0.000000D+00  0.000000D+00  0.000000D+00  0.000000D+00
     10   0.000000D+00  0.000000D+00  0.000000D+00  0.000000D+00  0.000000D+00
     11   0.000000D+00  0.000000D+00  0.000000D+00  0.000000D+00  0.000000D+00
     12   0.000000D+00  0.000000D+00  0.000000D+00  0.000000D+00  0.000000D+00
                 6             7             8             9            10 
      1   0.997886D+00  0.160661D+00 -0.385953D+00  0.214770D+00 -0.216128D+00
      2   0.649950D-01  0.432382D+00 -0.261952D-01 -0.408979D+00  0.130634D+00
      3   0.000000D+00  0.141241D+00 -0.288218D+00  0.139015D+00 -0.413953D+00
      4  -0.997886D+00  0.554670D-01  0.771905D+00 -0.706778D-01  0.554670D-01
      5  -0.649950D-01 -0.563016D+00  0.523904D-01  0.523011D+00 -0.563016D+00
      6   0.000000D+00 -0.555194D+00  0.000000D+00 -0.438189D+00  0.555194D+00
      7   0.000000D+00 -0.216128D+00 -0.385953D+00 -0.144093D+00  0.160661D+00
      8   0.000000D+00  0.130634D+00 -0.261952D-01 -0.114032D+00  0.432382D+00
      9   0.000000D+00  0.413953D+00  0.288218D+00  0.299174D+00 -0.141241D+00
     10   0.000000D+00  0.000000D+00  0.000000D+00  0.000000D+00  0.000000D+00
     11   0.000000D+00  0.000000D+00  0.000000D+00  0.000000D+00  0.000000D+00
     12   0.000000D+00  0.000000D+00  0.000000D+00  0.000000D+00  0.000000D+00
                11            12            13            14            15 
      1   0.414990D+00  0.214770D+00 -0.275317D+00  0.275317D+00  0.423558D+00
      2  -0.250832D+00 -0.408979D+00 -0.217880D+00  0.217880D+00 -0.214549D+00
      3   0.000000D+00 -0.139015D+00  0.000000D+00  0.000000D+00  0.000000D+00
      4  -0.690307D+00 -0.706778D-01  0.698875D+00 -0.246908D+00 -0.451968D+00
      5   0.329520D-01  0.523011D+00  0.333143D-02 -0.654058D+00  0.650727D+00
      6   0.000000D+00  0.438189D+00  0.000000D+00  0.000000D+00  0.000000D+00
      7   0.275317D+00 -0.144093D+00 -0.423558D+00 -0.284095D-01  0.284095D-01
      8   0.217880D+00 -0.114032D+00  0.214549D+00  0.436178D+00 -0.436178D+00
      9   0.000000D+00 -0.299174D+00  0.000000D+00  0.000000D+00  0.000000D+00
     10   0.000000D+00  0.000000D+00  0.000000D+00  0.000000D+00  0.000000D+00
     11   0.000000D+00  0.000000D+00  0.000000D+00  0.000000D+00  0.000000D+00
     12   0.000000D+00  0.000000D+00  0.000000D+00  0.000000D+00  0.000000D+00
                16            17            18            19            20 
      1   0.342517D+00  0.342517D+00  0.000000D+00  0.000000D+00 -0.342517D+00
      2   0.271060D+00  0.271060D+00  0.000000D+00  0.000000D+00 -0.271060D+00
      3   0.268284D+00  0.268284D+00 -0.517665D+00 -0.517665D+00  0.268284D+00
      4  -0.426822D+00 -0.426822D+00  0.000000D+00  0.000000D+00  0.426822D+00
      5  -0.337778D+00 -0.337778D+00  0.000000D+00  0.000000D+00  0.337778D+00
      6  -0.496391D+00 -0.918322D-01  0.486812D+00  0.891370D+00 -0.496391D+00
      7   0.843055D-01  0.843055D-01  0.000000D+00  0.000000D+00 -0.843055D-01
      8   0.667176D-01  0.667176D-01  0.000000D+00  0.000000D+00 -0.667176D-01
      9   0.751050D+00 -0.707670D+00  0.553796D+00 -0.904923D+00  0.751050D+00
     10   0.000000D+00  0.000000D+00  0.000000D+00  0.000000D+00  0.000000D+00
     11   0.000000D+00  0.000000D+00  0.000000D+00  0.000000D+00  0.000000D+00
     12  -0.522943D+00  0.531218D+00 -0.522943D+00  0.531218D+00 -0.522943D+00
                21 
      1  -0.342517D+00
      2  -0.271060D+00
      3   0.268284D+00
      4   0.426822D+00
      5   0.337778D+00
      6  -0.918322D-01
      7  -0.843055D-01
      8  -0.667176D-01
      9  -0.707670D+00
     10   0.000000D+00
     11   0.000000D+00
     12   0.531218D+00
 IB Matrix in Red2BG:
              1            2            3            4            5
     1            1            1            1            1            5
     2            2            3            4            5            6
     3            0            0            0            0            0
     4            0            0            0            0            0
              6            7            8            9           10
     1            5            2            2            2            3
     2            7            1            1            1            1
     3            0            3            4            5            4
     4            0            0            0            0            0
             11           12           13           14           15
     1            3            4            1            1            6
     2            1            1            5            5            5
     3            5            5            6            7            7
     4            0            0            0            0            0
             16           17           18           19           20
     1            2            2            3            3            4
     2            1            1            1            1            1
     3            5            5            5            5            5
     4            6            7            6            7            6
             21
     1            4
     2            1
     3            5
     4            7
 B Matrix in Red2BG:
                 1             2             3             4             5 
      1  -0.596088D+00  0.517280D+00 -0.596088D+00  0.620564D+00 -0.451874D+00
      2  -0.404575D-01  0.855816D+00 -0.404575D-01 -0.784156D+00 -0.892082D+00
      3   0.801899D+00  0.000000D+00 -0.801899D+00  0.000000D+00  0.000000D+00
      4   0.596088D+00 -0.517280D+00  0.596088D+00 -0.620564D+00  0.451874D+00
      5   0.404575D-01 -0.855816D+00  0.404575D-01  0.784156D+00  0.892082D+00
      6  -0.801899D+00  0.000000D+00  0.801899D+00  0.000000D+00  0.000000D+00
      7   0.000000D+00  0.000000D+00  0.000000D+00  0.000000D+00  0.000000D+00
      8   0.000000D+00  0.000000D+00  0.000000D+00  0.000000D+00  0.000000D+00
      9   0.000000D+00  0.000000D+00  0.000000D+00  0.000000D+00  0.000000D+00
     10   0.000000D+00  0.000000D+00  0.000000D+00  0.000000D+00  0.000000D+00
     11   0.000000D+00  0.000000D+00  0.000000D+00  0.000000D+00  0.000000D+00
     12   0.000000D+00  0.000000D+00  0.000000D+00  0.000000D+00  0.000000D+00
                 6             7             8             9            10 
      1   0.997886D+00  0.160661D+00 -0.385953D+00  0.214770D+00 -0.216128D+00
      2   0.649950D-01  0.432382D+00 -0.261952D-01 -0.408979D+00  0.130634D+00
      3   0.000000D+00  0.141241D+00 -0.288218D+00  0.139015D+00 -0.413953D+00
      4  -0.997886D+00  0.554670D-01  0.771905D+00 -0.706778D-01  0.554670D-01
      5  -0.649950D-01 -0.563016D+00  0.523904D-01  0.523011D+00 -0.563016D+00
      6   0.000000D+00 -0.555194D+00  0.000000D+00 -0.438189D+00  0.555194D+00
      7   0.000000D+00 -0.216128D+00 -0.385953D+00 -0.144093D+00  0.160661D+00
      8   0.000000D+00  0.130634D+00 -0.261952D-01 -0.114032D+00  0.432382D+00
      9   0.000000D+00  0.413953D+00  0.288218D+00  0.299174D+00 -0.141241D+00
     10   0.000000D+00  0.000000D+00  0.000000D+00  0.000000D+00  0.000000D+00
     11   0.000000D+00  0.000000D+00  0.000000D+00  0.000000D+00  0.000000D+00
     12   0.000000D+00  0.000000D+00  0.000000D+00  0.000000D+00  0.000000D+00
                11            12            13            14            15 
      1   0.414990D+00  0.214770D+00 -0.275317D+00  0.275317D+00  0.423558D+00
      2  -0.250832D+00 -0.408979D+00 -0.217880D+00  0.217880D+00 -0.214549D+00
      3   0.000000D+00 -0.139015D+00  0.000000D+00  0.000000D+00  0.000000D+00
      4  -0.690307D+00 -0.706778D-01  0.698875D+00 -0.246908D+00 -0.451968D+00
      5   0.329520D-01  0.523011D+00  0.333143D-02 -0.654058D+00  0.650727D+00
[...]
  18         D3        -0.00000  -0.01922  -0.00000  -0.00000  -0.00000
  19         D4        -0.00000  -0.02701   0.00000  -0.00000   0.00000
  20         D5        -0.00540   0.01655  -0.01431  -0.01281  -0.00086
  21         D6        -0.00540   0.00876  -0.01431  -0.01281  -0.00086
 Forces in eigenvector basis: 
                 1 
      1   0.000000D+00
      2   0.000000D+00
      3   0.282546D-05
      4   0.000000D+00
      5  -0.245477D-04
      6   0.342742D-04
      7   0.000000D+00
      8   0.257569D-04
      9   0.750146D-05
     10   0.283100D-04
     11  -0.985201D-04
     12   0.000000D+00
     13   0.603640D-05
     14  -0.366523D-04
     15  -0.724345D-04
 Angle between quadratic step and forces=  31.59 degrees.
 Linear search not attempted -- first point.
 IB Matrix in FormBX:
              1            2            3            4            5
     1            1            1            1            1            5
     2            2            3            4            5            6
     3            0            0            0            0            0
     4            0            0            0            0            0
              6            7            8            9           10
     1            5            2            2            2            3
     2            7            1            1            1            1
     3            0            3            4            5            4
     4            0            0            0            0            0
             11           12           13           14           15
     1            3            4            1            1            6
     2            1            1            5            5            5
     3            5            5            6            7            7
     4            0            0            0            0            0
             16           17           18           19           20
     1            2            2            3            3            4
     2            1            1            1            1            1
     3            5            5            5            5            5
     4            6            7            6            7            6
             21
     1            4
     2            1
     3            5
     4            7
 B Matrix in FormBX:
                 1             2             3             4             5 
      1  -0.596088D+00  0.517280D+00 -0.596088D+00  0.620564D+00 -0.451874D+00
      2  -0.404575D-01  0.855816D+00 -0.404575D-01 -0.784156D+00 -0.892082D+00
      3   0.801899D+00  0.000000D+00 -0.801899D+00  0.000000D+00  0.000000D+00
      4   0.596088D+00 -0.517280D+00  0.596088D+00 -0.620564D+00  0.451874D+00
      5   0.404575D-01 -0.855816D+00  0.404575D-01  0.784156D+00  0.892082D+00
      6  -0.801899D+00  0.000000D+00  0.801899D+00  0.000000D+00  0.000000D+00
      7   0.000000D+00  0.000000D+00  0.000000D+00  0.000000D+00  0.000000D+00
      8   0.000000D+00  0.000000D+00  0.000000D+00  0.000000D+00  0.000000D+00
      9   0.000000D+00  0.000000D+00  0.000000D+00  0.000000D+00  0.000000D+00
     10   0.000000D+00  0.000000D+00  0.000000D+00  0.000000D+00  0.000000D+00
     11   0.000000D+00  0.000000D+00  0.000000D+00  0.000000D+00  0.000000D+00
     12   0.000000D+00  0.000000D+00  0.000000D+00  0.000000D+00  0.000000D+00
                 6             7             8             9            10 
      1   0.997886D+00  0.160661D+00 -0.385953D+00  0.214770D+00 -0.216128D+00
      2   0.649950D-01  0.432382D+00 -0.261952D-01 -0.408979D+00  0.130634D+00
      3   0.000000D+00  0.141241D+00 -0.288218D+00  0.139015D+00 -0.413953D+00
      4  -0.997886D+00  0.554670D-01  0.771905D+00 -0.706778D-01  0.554670D-01
      5  -0.649950D-01 -0.563016D+00  0.523904D-01  0.523011D+00 -0.563016D+00
      6   0.000000D+00 -0.555194D+00  0.000000D+00 -0.438189D+00  0.555194D+00
      7   0.000000D+00 -0.216128D+00 -0.385953D+00 -0.144093D+00  0.160661D+00
      8   0.000000D+00  0.130634D+00 -0.261952D-01 -0.114032D+00  0.432382D+00
      9   0.000000D+00  0.413953D+00  0.288218D+00  0.299174D+00 -0.141241D+00
     10   0.000000D+00  0.000000D+00  0.000000D+00  0.000000D+00  0.000000D+00
     11   0.000000D+00  0.000000D+00  0.000000D+00  0.000000D+00  0.000000D+00
     12   0.000000D+00  0.000000D+00  0.000000D+00  0.000000D+00  0.000000D+00
                11            12            13            14            15 
      1   0.414990D+00  0.214770D+00 -0.275317D+00  0.275317D+00  0.423558D+00
      2  -0.250832D+00 -0.408979D+00 -0.217880D+00  0.217880D+00 -0.214549D+00
      3   0.000000D+00 -0.139015D+00  0.000000D+00  0.000000D+00  0.000000D+00
      4  -0.690307D+00 -0.706778D-01  0.698875D+00 -0.246908D+00 -0.451968D+00
      5   0.329520D-01  0.523011D+00  0.333143D-02 -0.654058D+00  0.650727D+00
      6   0.000000D+00  0.438189D+00  0.000000D+00  0.000000D+00  0.000000D+00
      7   0.275317D+00 -0.144093D+00 -0.423558D+00 -0.284095D-01  0.284095D-01
      8   0.217880D+00 -0.114032D+00  0.214549D+00  0.436178D+00 -0.436178D+00
      9   0.000000D+00 -0.299174D+00  0.000000D+00  0.000000D+00  0.000000D+00
     10   0.000000D+00  0.000000D+00  0.000000D+00  0.000000D+00  0.000000D+00
     11   0.000000D+00  0.000000D+00  0.000000D+00  0.000000D+00  0.000000D+00
     12   0.000000D+00  0.000000D+00  0.000000D+00  0.000000D+00  0.000000D+00
                16            17            18            19            20 
      1   0.342517D+00  0.342517D+00  0.000000D+00  0.000000D+00 -0.342517D+00
      2   0.271060D+00  0.271060D+00  0.000000D+00  0.000000D+00 -0.271060D+00
      3   0.268284D+00  0.268284D+00 -0.517665D+00 -0.517665D+00  0.268284D+00
      4  -0.426822D+00 -0.426822D+00  0.000000D+00  0.000000D+00  0.426822D+00
      5  -0.337778D+00 -0.337778D+00  0.000000D+00  0.000000D+00  0.337778D+00
      6  -0.496391D+00 -0.918322D-01  0.486812D+00  0.891370D+00 -0.496391D+00
      7   0.843055D-01  0.843055D-01  0.000000D+00  0.000000D+00 -0.843055D-01
      8   0.667176D-01  0.667176D-01  0.000000D+00  0.000000D+00 -0.667176D-01
      9   0.751050D+00 -0.707670D+00  0.553796D+00 -0.904923D+00  0.751050D+00
     10   0.000000D+00  0.000000D+00  0.000000D+00  0.000000D+00  0.000000D+00
     11   0.000000D+00  0.000000D+00  0.000000D+00  0.000000D+00  0.000000D+00
     12  -0.522943D+00  0.531218D+00 -0.522943D+00  0.531218D+00 -0.522943D+00
                21 
      1  -0.342517D+00
      2  -0.271060D+00
      3   0.268284D+00
      4   0.426822D+00
      5   0.337778D+00
      6  -0.918322D-01
      7  -0.843055D-01
      8  -0.667176D-01
      9  -0.707670D+00
     10   0.000000D+00
     11   0.000000D+00
     12   0.531218D+00
 Iteration  1 RMS(Cart)=  0.00015062 RMS(Int)=  0.00000001
 Iteration  2 RMS(Cart)=  0.00000001 RMS(Int)=  0.00000000
 Input Coordinates in SymCor: 
                 1             2             3             4             5 
      1   0.176756D+01  0.300299D+01  0.700930D+00  0.300299D+01  0.409818D-04
      2  -0.135818D+01 -0.127402D+01 -0.312306D+01 -0.127402D+01  0.875316D+00
      3   0.000000D+00 -0.166240D+01  0.000000D+00  0.166240D+01  0.000000D+00
                 6             7 
      1   0.951767D+00 -0.228303D+01
      2   0.275382D+01  0.726969D+00
      3   0.000000D+00  0.000000D+00
 Symmetrized Coordinates in SymCor: 
                 1             2             3             4             5 
      1  -0.176756D+01 -0.300299D+01 -0.700931D+00 -0.300299D+01 -0.409818D-04
      2  -0.135818D+01 -0.127402D+01 -0.312306D+01 -0.127402D+01  0.875316D+00
      3   0.000000D+00  0.166240D+01  0.000000D+00 -0.166240D+01  0.000000D+00
                 6             7 
      1  -0.951767D+00  0.228303D+01
      2   0.275382D+01  0.726968D+00
      3   0.000000D+00  0.000000D+00
 Final Coordinates in SymCor: 
                 1             2             3             4             5 
      1   0.176756D+01  0.300299D+01  0.700930D+00  0.300299D+01  0.409818D-04
      2  -0.135818D+01 -0.127402D+01 -0.312306D+01 -0.127402D+01  0.875316D+00
      3   0.000000D+00 -0.166240D+01  0.000000D+00  0.166240D+01  0.000000D+00
                 6             7 
      1   0.951767D+00 -0.228303D+01
      2   0.275382D+01  0.726969D+00
      3   0.000000D+00  0.000000D+00
 ClnCor:  largest displacement from symmetrization is 8.24D-12 for atom     4.
 Variable       Old X    -DE/DX   Delta X   Delta X   Delta X     New X
                                 (Linear)    (Quad)   (Total)
    R1        2.07294  -0.00001   0.00000  -0.00004  -0.00004   2.07291
    R2        2.06226  -0.00003   0.00000  -0.00009  -0.00009   2.06216
    R3        2.07294  -0.00001   0.00000  -0.00004  -0.00004   2.07291
    R4        2.84819   0.00002   0.00000   0.00008   0.00008   2.84827
    R5        2.10616  -0.00009   0.00000  -0.00032  -0.00032   2.10584
    R6        2.28779   0.00008   0.00000   0.00010   0.00010   2.28789
    A1        1.92087   0.00001   0.00000   0.00005   0.00005   1.92092
    A2        1.86093   0.00002   0.00000   0.00022   0.00022   1.86116
    A3        1.91579  -0.00002   0.00000  -0.00019  -0.00019   1.91560
    A4        1.92087   0.00001   0.00000   0.00005   0.00005   1.92092
    A5        1.92846   0.00000   0.00000   0.00005   0.00005   1.92851
    A6        1.91579  -0.00002   0.00000  -0.00019  -0.00019   1.91560
    A7        2.00327  -0.00002   0.00000  -0.00008  -0.00008   2.00319
    A8        2.17522   0.00003   0.00000   0.00015   0.00015   2.17537
    A9        2.10470  -0.00002   0.00000  -0.00007  -0.00007   2.10463
    D1       -1.02000  -0.00000   0.00000  -0.00003  -0.00003  -1.02002
    D2        2.12160  -0.00000   0.00000  -0.00003  -0.00003   2.12157
    D3        3.14159  -0.00000   0.00000  -0.00000   0.00000   3.14159
    D4        0.00000   0.00000   0.00000  -0.00000   0.00000   0.00000
    D5        1.02000   0.00000   0.00000   0.00003   0.00003   1.02002
    D6       -2.12160   0.00000   0.00000   0.00003   0.00003  -2.12157
         Item               Value     Threshold  Converged?
 Maximum Force            0.000095     0.000450     YES
 RMS     Force            0.000031     0.000300     YES
 Maximum Displacement     0.000414     0.001800     YES
 RMS     Displacement     0.000151     0.001200     YES
 Predicted change in Energy=-3.238490D-08
 Optimization completed.
    -- Stationary point found.
                           ----------------------------
                           !   Optimized Parameters   !
                           ! (Angstroms and Degrees)  !
 --------------------------                            --------------------------
 ! Name  Definition              Value          Derivative Info.                !
 --------------------------------------------------------------------------------
 ! R1    R(1,2)                  1.097          -DE/DX =    0.0                 !
 ! R2    R(1,3)                  1.0913         -DE/DX =    0.0                 !
 ! R3    R(1,4)                  1.097          -DE/DX =    0.0                 !
 ! R4    R(1,5)                  1.5072         -DE/DX =    0.0                 !
 ! R5    R(5,6)                  1.1145         -DE/DX =   -0.0001              !
 ! R6    R(5,7)                  1.2106         -DE/DX =    0.0001              !
 ! A1    A(2,1,3)              110.0579         -DE/DX =    0.0                 !
 ! A2    A(2,1,4)              106.6236         -DE/DX =    0.0                 !
 ! A3    A(2,1,5)              109.7664         -DE/DX =    0.0                 !
 ! A4    A(3,1,4)              110.0579         -DE/DX =    0.0                 !
 ! A5    A(3,1,5)              110.4927         -DE/DX =    0.0                 !
 ! A6    A(4,1,5)              109.7664         -DE/DX =    0.0                 !
 ! A7    A(1,5,6)              114.7787         -DE/DX =    0.0                 !
 ! A8    A(1,5,7)              124.6308         -DE/DX =    0.0                 !
 ! A9    A(6,5,7)              120.5905         -DE/DX =    0.0                 !
 ! D1    D(2,1,5,6)            -58.4414         -DE/DX =    0.0                 !
 ! D2    D(2,1,5,7)            121.5586         -DE/DX =    0.0                 !
 ! D3    D(3,1,5,6)            180.0            -DE/DX =    0.0                 !
 ! D4    D(3,1,5,7)              0.0            -DE/DX =    0.0                 !
 ! D5    D(4,1,5,6)             58.4414         -DE/DX =    0.0                 !
 ! D6    D(4,1,5,7)           -121.5586         -DE/DX =    0.0                 !
 --------------------------------------------------------------------------------
 GradGradGradGradGradGradGradGradGradGradGradGradGradGradGradGradGradGrad

 Leave Link  103 at Sat Aug 10 16:32:50 2019, MaxMem=  4294967296 cpu:               0.3 elap:               0.0

 ----------------------------------------------------------------------

 Electric dipole moment (input orientation):
 (Debye = 10**-18 statcoulomb cm , SI units = C m)
                  (au)            (Debye)         (10**-30 SI)
   Tot        0.104207D+01      0.264868D+01      0.883504D+01
   x          0.103466D+01      0.262985D+01      0.877223D+01
   y         -0.124039D+00     -0.315275D+00     -0.105164D+01
   z          0.000000D+00      0.000000D+00      0.000000D+00

 Dipole polarizability, Alpha (input orientation).
 (esu units = cm**3 , SI units = C**2 m**2 J**-1)
 Alpha(0;0):
               (au)            (10**-24 esu)      (10**-40 SI)
   iso        0.240652D+02      0.356610D+01      0.396782D+01
   aniso      0.106959D+02      0.158497D+01      0.176351D+01
   xx         0.297690D+02      0.441131D+01      0.490825D+01
   yx        -0.781397D+00     -0.115791D+00     -0.128835D+00
   yy         0.248359D+02      0.368031D+01      0.409489D+01
   zx         0.000000D+00      0.000000D+00      0.000000D+00
   zy         0.000000D+00      0.000000D+00      0.000000D+00
   zz         0.175907D+02      0.260667D+01      0.290031D+01

 ----------------------------------------------------------------------

 Dipole orientation:
     6         -0.13545986         -1.12993183          1.91657103
     1          1.54243300         -1.09908233          3.13346143
     1         -0.35915988         -2.99591472          1.06746889
     1         -1.75851487         -0.70335410          3.13346143
     6          0.10345445          0.86296026         -0.10419522
     1          0.33899209          2.82768614          0.61711424
     8          0.05353525          0.44656172         -2.35322081

 Electric dipole moment (dipole orientation):
 (Debye = 10**-18 statcoulomb cm , SI units = C m)
                  (au)            (Debye)         (10**-30 SI)
   Tot        0.104207D+01      0.264868D+01      0.883504D+01
   x          0.000000D+00      0.000000D+00      0.000000D+00
   y          0.000000D+00      0.000000D+00      0.000000D+00
   z          0.104207D+01      0.264868D+01      0.883504D+01

 Dipole polarizability, Alpha (dipole orientation).
 (esu units = cm**3 , SI units = C**2 m**2 J**-1)
 Alpha(0;0):
               (au)            (10**-24 esu)      (10**-40 SI)
   iso        0.240652D+02      0.356610D+01      0.396782D+01
   aniso      0.106959D+02      0.158497D+01      0.176351D+01
   xx         0.176917D+02      0.262164D+01      0.291697D+01
   yx         0.842710D+00      0.124877D+00      0.138944D+00
   yy         0.246201D+02      0.364832D+01      0.405931D+01
   zx        -0.209783D-01     -0.310867D-02     -0.345886D-02
   zy        -0.174990D+00     -0.259308D-01     -0.288519D-01
   zz         0.298838D+02      0.442832D+01      0.492717D+01

 ----------------------------------------------------------------------

 Test job not archived.
 1\1\NSC-N1327\Freq\RB3LYP\6-31G(d,p)\C2H4O1\X_KJEJO\10-Aug-2019\0\\# f
 req(intmodes) iop(1/33=3) b3lyp/6-31g(d,p) geom=connectivity iop(7/75=
 -1)\\name\\0,1\C,0.935313,-0.718656,0.\H,1.589195,-0.674276,-0.879647\
 H,0.370805,-1.652608,0.\H,1.589195,-0.674276,0.879647\C,0.,0.463222,0.
 \H,0.503628,1.457476,0.\O,-1.208088,0.384536,0.\\Version=ES64L-G16RevB
 .01\State=1-A'\HF=-153.8357282\RMSD=8.512e-09\RMSF=4.308e-05\ZeroPoint
 =0.0555919\Thermal=0.0594892\Dipole=1.0346616,-0.1240386,0.\DipoleDeri
 v=-0.1859428,0.1883681,0.,0.2342984,-0.2161598,0.,0.,0.,0.0777807,0.03
 73546,-0.0041292,0.0753042,0.0112295,0.0433644,0.0403211,0.088438,0.00
 55055,-0.0210131,0.0179444,-0.073845,0.,-0.0299403,-0.0531686,0.,0.,0.
 ,0.0749217,0.0373546,-0.0041292,-0.0753042,0.0112295,0.0433644,-0.0403
 211,-0.088438,-0.0055055,-0.0210131,1.1447872,-0.0494933,0.,-0.1697266
 ,0.9615925,0.,0.,0.,0.1441708,-0.0622993,-0.1080657,0.,-0.0784957,-0.2
 79242,0.,0.,0.,0.0428903,-0.9891988,0.0512944,0.,0.0214053,-0.4997509,
 0.,0.,0.,-0.2977372\Polar=29.7690055,-0.7813974,24.8359416,0.,0.,17.59
 06884\Quadrupole=-1.4111999,0.6529513,0.7582486,0.5595242,0.,0.\PG=CS 
 [SG(C2H2O1),X(H2)]\NImag=0\\0.53901626,0.06924952,0.53679776,0.,0.,0.5
 1953167,-0.13446933,-0.00858410,0.13166477,0.14730292,-0.00669259,-0.0
 5046093,0.00541927,0.00602464,0.04645600,0.12832615,0.00896043,-0.2129
 7988,-0.13965308,-0.00969190,0.23207233,-0.12519045,-0.12554726,0.,-0.
 00870846,-0.01457872,-0.00234680,0.12941489,-0.12200370,-0.24878406,0.
 ,0.00148245,0.00139818,0.00021883,0.13361114,0.26874618,0.,0.,-0.04962
 413,0.01199345,0.02327592,0.00157192,0.,0.,0.04661112,-0.13446933,-0.0
 0858410,-0.13166477,0.01251901,-0.00002441,0.01647347,-0.00870846,0.00
 148245,-0.01199345,0.14730292,-0.00669259,-0.05046093,-0.00541927,-0.0
 0002441,-0.00041252,0.00064630,-0.01457872,0.00139818,-0.02327592,0.00
 602464,0.04645600,-0.12832615,-0.00896043,-0.21297988,-0.01647347,-0.0
 0064630,-0.02154355,0.00234680,-0.00021883,0.00157192,0.13965308,0.009
 69190,0.23207233,-0.10656225,0.04204875,0.,-0.01609625,0.01440179,-0.0
 0186536,0.01397264,-0.01883992,0.,-0.01609625,0.01440179,0.00186536,0.
 99271368,0.04251133,-0.18508186,0.,-0.00434889,0.00614095,0.00070616,0
 .02062743,-0.02596094,0.,-0.00434889,0.00614095,-0.00070616,0.06003152
 ,0.55271332,0.,0.,-0.08661972,0.01710542,-0.02467197,0.00191454,0.,0.,
 -0.00112912,-0.01710542,0.02467197,0.00191454,0.,0.,0.20974710,0.01134
 382,0.01687090,0.,0.00073389,-0.00166263,0.00023148,-0.00256966,0.0039
 8993,0.,0.00073389,-0.00166263,-0.00023148,-0.08217203,-0.06609368,0.,
 0.11245349,-0.01216370,-0.01923985,0.,0.00053706,-0.00010379,-0.000798
 24,0.00353733,-0.00320168,0.,0.00053706,-0.00010379,0.00079824,-0.0585
 9530,-0.23972499,0.,0.08879807,0.25251883,0.,0.,0.01711843,-0.00213193
 ,0.00294403,0.00008406,0.,0.,0.00247330,0.00213193,-0.00294403,0.00008
 406,0.,0.,-0.06240079,0.,0.,0.02225397,-0.04966873,0.01454628,0.,-0.00
 128178,0.00253192,-0.00116585,0.00178950,0.00027765,0.,-0.00128178,0.0
 0253192,0.00116585,-0.78575954,-0.04837884,0.,-0.04052339,-0.02265053,
 0.,0.87672572,0.03579172,0.01722988,0.,0.00491325,-0.00301790,-0.00004
 158,-0.00307120,0.00640414,0.,0.00491325,-0.00301790,0.00004158,-0.053
 44865,-0.11422743,0.,-0.04023996,0.00985528,0.,0.05114159,0.08677393,0
 .,0.,0.02555351,-0.00250515,0.00337095,-0.00111942,0.,0.,-0.00147500,0
 .00250515,-0.00337095,-0.00111942,0.,0.,-0.06342654,0.,0.,0.02038697,0
 .,0.,0.02119992\\-0.00004176,0.00005553,0.,0.00002003,-0.00000947,0.00
 000182,-0.00001527,-0.00002824,0.,0.00002003,-0.00000947,-0.00000182,-
 0.00010450,-0.00007627,0.,0.00004328,0.00008448,0.,0.00007817,-0.00001
 656,0.\\\@


 THE MOST BEAUTIFUL EXPERIENCE WE CAN HAVE IS THE MYSTERIOUS.
 IT IS THE FUNDAMENTAL EMOTION WHICH STANDS AT AT THE CRADLE 
 OF TRUE ART AND TRUE SCIENCE.

                                    -- ALBERT EINSTEIN
 Job cpu time:       0 days  0 hours  1 minutes  8.1 seconds.
 Elapsed time:       0 days  0 hours  0 minutes  5.4 seconds.
 File lengths (MBytes):  RWF=      6 Int=      0 D2E=      0 Chk=      8 Scr=      1
 Normal termination of Gaussian 16 at Sat Aug 10 16:32:50 2019.
