 Entering Gaussian System, Link 0=/software/sse/easybuild/prefix/software/Gaussian/16.B.01-avx2-nsc1-bdist/g16/g16.orig
 Input=freq-lm.wrap
 Output=freq-lm.log
 Initial command:
 /software/sse/easybuild/prefix/software/Gaussian/16.B.01-avx2-nsc1-bdist/g16/l1.exe "/scratch/local/Gau-131894.inp" -scrdir="/scratch/local/"
 Default is to use a total of  16 processors:
                               16 via shared-memory
                                1 via Linda
 Entering Link 1 = /software/sse/easybuild/prefix/software/Gaussian/16.B.01-avx2-nsc1-bdist/g16/l1.exe PID=    131900.
  
 Copyright (c) 1988-2017, Gaussian, Inc.  All Rights Reserved.
  
 This is part of the Gaussian(R) 16 program.  It is based on
 the Gaussian(R) 09 system (copyright 2009, Gaussian, Inc.),
 the Gaussian(R) 03 system (copyright 2003, Gaussian, Inc.),
 the Gaussian(R) 98 system (copyright 1998, Gaussian, Inc.),
 the Gaussian(R) 94 system (copyright 1995, Gaussian, Inc.),
 the Gaussian 92(TM) system (copyright 1992, Gaussian, Inc.),
 the Gaussian 90(TM) system (copyright 1990, Gaussian, Inc.),
 the Gaussian 88(TM) system (copyright 1988, Gaussian, Inc.),
 the Gaussian 86(TM) system (copyright 1986, Carnegie Mellon
 University), and the Gaussian 82(TM) system (copyright 1983,
 Carnegie Mellon University). Gaussian is a federally registered
 trademark of Gaussian, Inc.
  
 This software contains proprietary and confidential information,
 including trade secrets, belonging to Gaussian, Inc.
  
 This software is provided under written license and may be
 used, copied, transmitted, or stored only in accord with that
 written license.
  
 The following legend is applicable only to US Government
 contracts under FAR:
  
                    RESTRICTED RIGHTS LEGEND
  
 Use, reproduction and disclosure by the US Government is
 subject to restrictions as set forth in subparagraphs (a)
 and (c) of the Commercial Computer Software - Restricted
 Rights clause in FAR 52.227-19.
  
 Gaussian, Inc.
 340 Quinnipiac St., Bldg. 40, Wallingford CT 06492
  
  
 ---------------------------------------------------------------
 Warning -- This program may not be used in any manner that
 competes with the business of Gaussian, Inc. or will provide
 assistance to any competitor of Gaussian, Inc.  The licensee
 of this program is prohibited from giving any competitor of
 Gaussian, Inc. access to this program.  By using this program,
 the user acknowledges that Gaussian, Inc. is engaged in the
 business of creating and licensing software in the field of
 computational chemistry and represents and warrants to the
 licensee that it is not a competitor of Gaussian, Inc. and that
 it will not use this program in any manner prohibited above.
 ---------------------------------------------------------------
  

 Cite this work as:
 Gaussian 16, Revision B.01,
 M. J. Frisch, G. W. Trucks, H. B. Schlegel, G. E. Scuseria, 
 M. A. Robb, J. R. Cheeseman, G. Scalmani, V. Barone, 
 G. A. Petersson, H. Nakatsuji, X. Li, M. Caricato, A. V. Marenich, 
 J. Bloino, B. G. Janesko, R. Gomperts, B. Mennucci, H. P. Hratchian, 
 J. V. Ortiz, A. F. Izmaylov, J. L. Sonnenberg, D. Williams-Young, 
 F. Ding, F. Lipparini, F. Egidi, J. Goings, B. Peng, A. Petrone, 
 T. Henderson, D. Ranasinghe, V. G. Zakrzewski, J. Gao, N. Rega, 
 G. Zheng, W. Liang, M. Hada, M. Ehara, K. Toyota, R. Fukuda, 
 J. Hasegawa, M. Ishida, T. Nakajima, Y. Honda, O. Kitao, H. Nakai, 
 T. Vreven, K. Throssell, J. A. Montgomery, Jr., J. E. Peralta, 
 F. Ogliaro, M. J. Bearpark, J. J. Heyd, E. N. Brothers, K. N. Kudin, 
 V. N. Staroverov, T. A. Keith, R. Kobayashi, J. Normand, 
 K. Raghavachari, A. P. Rendell, J. C. Burant, S. S. Iyengar, 
 J. Tomasi, M. Cossi, J. M. Millam, M. Klene, C. Adamo, R. Cammi, 
 J. W. Ochterski, R. L. Martin, K. Morokuma, O. Farkas, 
 J. B. Foresman, and D. J. Fox, Gaussian, Inc., Wallingford CT, 2016.
 
 ******************************************
 Gaussian 16:  ES64L-G16RevB.01 20-Dec-2017
                10-Aug-2019 
 ******************************************
 %chk=freq.chk
 ----------------------------------------------------------------------
 # freq(intmodes) iop(1/33=3) b3lyp/6-31g(d,p) geom=connectivity iop(7/
 75=-1)
 ----------------------------------------------------------------------
 1/10=4,18=20,30=1,33=3,38=1,57=2/1,3;
 2/9=110,12=2,17=6,18=5,40=1/2;
 3/5=1,6=6,7=101,11=2,25=1,30=1,71=2,74=-5,140=1/1,2,3;
 4//1;
 5/5=2,38=5,98=1/2;
 8/6=4,10=90,11=11/1;
 11/6=1,8=1,9=11,15=111,16=1/1,2,10;
 10/6=1/2;
 6/7=2,8=2,9=2,10=2,28=1/1;
 7/8=21,10=1,25=1,75=-1/1,2,3,16;
 1/10=4,18=20,30=1,33=3/3;
 99//99;
 ONIOM results not found on unit 2.
 ----
 name
 ----
 TstMul:  ICh=     0
 TstMul:  Mul=     1
 TstMul:  ICh=     0
 TstMul:  Mul=     1
 Symbolic Z-matrix:
 Charge =  0 Multiplicity = 1
 C                     0.        1.29252  -0.61448 
 H                     0.87994   1.33999  -1.2666 
 H                    -0.87994   1.33999  -1.2666 
 H                     0.        2.14631   0.06409 
 C                     0.       -1.29252  -0.61448 
 H                     0.87994  -1.33999  -1.2666 
 H                     0.       -2.14631   0.06409 
 H                    -0.87994  -1.33999  -1.2666 
 C                     0.        0.        0.18471 
 O                     0.        0.        1.40047 
 
 RdStrC is calling ZToCFu for IStruc=1 NZ=    10.
                                ZToCFu                                
 ---------------------------------------------------------------------
 Center     Atomic      Atomic             Coordinates (Angstroms)
 Number     Number       Type             X           Y           Z
 ---------------------------------------------------------------------
      1          6           0        0.000000    1.292515   -0.614484
      2          1           0        0.879940    1.339986   -1.266602
      3          1           0       -0.879940    1.339986   -1.266602
      4          1           0        0.000000    2.146315    0.064088
      5          6           0        0.000000   -1.292515   -0.614484
      6          1           0        0.879940   -1.339986   -1.266602
      7          1           0        0.000000   -2.146315    0.064088
      8          1           0       -0.879940   -1.339986   -1.266602
      9          6           0        0.000000    0.000000    0.184708
     10          8           0        0.000000    0.000000    1.400474
 ---------------------------------------------------------------------
 Connectivity in DoCon:
 I=     1 IAn=  6 IBond, RBType=     2  1.00     3  1.00     4  1.00     9  1.00
 I=     2 IAn=  1 IBond, RBType=     1  1.00
 I=     3 IAn=  1 IBond, RBType=     1  1.00
 I=     4 IAn=  1 IBond, RBType=     1  1.00
 I=     5 IAn=  6 IBond, RBType=     6  1.00     7  1.00     8  1.00     9  1.00
 I=     6 IAn=  1 IBond, RBType=     5  1.00
 I=     7 IAn=  1 IBond, RBType=     5  1.00
 I=     8 IAn=  1 IBond, RBType=     5  1.00
 I=     9 IAn=  6 IBond, RBType=     1  1.00     5  1.00    10  2.00
 I=    10 IAn=  8 IBond, RBType=     9  2.00
 After GenITR:
 ITRead=  0  0  0  0  0  0  0  0  0  0
 MicOpt= -1 -1 -1 -1 -1 -1 -1 -1 -1 -1
 List IsCon N=     10 M=      2:
 I=      1 Vals=      2      1 |      3      1 |      4      1 |      9      1 |
 I=      2 Vals=      1      1 |
 I=      3 Vals=      1      1 |
 I=      4 Vals=      1      1 |
 I=      5 Vals=      6      1 |      7      1 |      8      1 |      9      1 |
 I=      6 Vals=      5      1 |
 I=      7 Vals=      5      1 |
 I=      8 Vals=      5      1 |
 I=      9 Vals=      1      1 |      5      1 |     10      2 |
 I=     10 Vals=      9      2 |
 Coordinate R1 contains atom 1 which is already in QM block.
 Coordinate R1 contains atom 2 which is already in QM block.
 Coordinate R2 contains atom 1 which is already in QM block.
 Coordinate R2 contains atom 3 which is already in QM block.
 Coordinate R3 contains atom 1 which is already in QM block.
 Coordinate R3 contains atom 4 which is already in QM block.
 Coordinate R4 contains atom 1 which is already in QM block.
 Coordinate R4 contains atom 9 which is already in QM block.
 Coordinate R5 contains atom 5 which is already in QM block.
 Coordinate R5 contains atom 6 which is already in QM block.
 Coordinate R6 contains atom 5 which is already in QM block.
 Coordinate R6 contains atom 7 which is already in QM block.
 Coordinate R7 contains atom 5 which is already in QM block.
 Coordinate R7 contains atom 8 which is already in QM block.
 Coordinate R8 contains atom 5 which is already in QM block.
 Coordinate R8 contains atom 9 which is already in QM block.
 Coordinate R9 contains atom 9 which is already in QM block.
 Coordinate R9 contains atom 10 which is already in QM block.
 Coordinate A1 contains atom 2 which is already in QM block.
 Coordinate A1 contains atom 1 which is already in QM block.
 Coordinate A1 contains atom 1 which is already in QM block.
 Coordinate A2 contains atom 2 which is already in QM block.
 Coordinate A2 contains atom 1 which is already in QM block.
 Coordinate A2 contains atom 1 which is already in QM block.
 Coordinate A3 contains atom 2 which is already in QM block.
 Coordinate A3 contains atom 1 which is already in QM block.
 Coordinate A3 contains atom 1 which is already in QM block.
 Coordinate A4 contains atom 3 which is already in QM block.
 Coordinate A4 contains atom 1 which is already in QM block.
 Coordinate A4 contains atom 1 which is already in QM block.
 Coordinate A5 contains atom 3 which is already in QM block.
 Coordinate A5 contains atom 1 which is already in QM block.
 Coordinate A5 contains atom 1 which is already in QM block.
 Coordinate A6 contains atom 4 which is already in QM block.
 Coordinate A6 contains atom 1 which is already in QM block.
 Coordinate A6 contains atom 1 which is already in QM block.
 Coordinate A7 contains atom 6 which is already in QM block.
 Coordinate A7 contains atom 5 which is already in QM block.
 Coordinate A7 contains atom 5 which is already in QM block.
 Coordinate A8 contains atom 6 which is already in QM block.
 Coordinate A8 contains atom 5 which is already in QM block.
 Coordinate A8 contains atom 5 which is already in QM block.
 Coordinate A9 contains atom 6 which is already in QM block.
 Coordinate A9 contains atom 5 which is already in QM block.
 Coordinate A9 contains atom 5 which is already in QM block.
 Coordinate A10 contains atom 7 which is already in QM block.
 Coordinate A10 contains atom 5 which is already in QM block.
 Coordinate A10 contains atom 5 which is already in QM block.
 Coordinate A11 contains atom 7 which is already in QM block.
 Coordinate A11 contains atom 5 which is already in QM block.
 Coordinate A11 contains atom 5 which is already in QM block.
 Coordinate A12 contains atom 8 which is already in QM block.
 Coordinate A12 contains atom 5 which is already in QM block.
 Coordinate A12 contains atom 5 which is already in QM block.
 Coordinate A13 contains atom 1 which is already in QM block.
 Coordinate A13 contains atom 9 which is already in QM block.
 Coordinate A13 contains atom 9 which is already in QM block.
 Coordinate A14 contains atom 1 which is already in QM block.
 Coordinate A14 contains atom 9 which is already in QM block.
 Coordinate A14 contains atom 9 which is already in QM block.
 Coordinate A15 contains atom 5 which is already in QM block.
 Coordinate A15 contains atom 9 which is already in QM block.
 Coordinate A15 contains atom 9 which is already in QM block.
 Coordinate D1 contains atom 2 which is already in QM block.
 Coordinate D1 contains atom 1 which is already in QM block.
 Coordinate D1 contains atom 9 which is already in QM block.
 Coordinate D1 contains atom 5 which is already in QM block.
 Coordinate D2 contains atom 2 which is already in QM block.
 Coordinate D2 contains atom 1 which is already in QM block.
 Coordinate D2 contains atom 9 which is already in QM block.
 Coordinate D2 contains atom 10 which is already in QM block.
 Coordinate D3 contains atom 3 which is already in QM block.
 Coordinate D3 contains atom 1 which is already in QM block.
 Coordinate D3 contains atom 9 which is already in QM block.
 Coordinate D3 contains atom 5 which is already in QM block.
 Coordinate D4 contains atom 3 which is already in QM block.
 Coordinate D4 contains atom 1 which is already in QM block.
 Coordinate D4 contains atom 9 which is already in QM block.
 Coordinate D4 contains atom 10 which is already in QM block.
 Coordinate D5 contains atom 4 which is already in QM block.
 Coordinate D5 contains atom 1 which is already in QM block.
 Coordinate D5 contains atom 9 which is already in QM block.
 Coordinate D5 contains atom 5 which is already in QM block.
 Coordinate D6 contains atom 4 which is already in QM block.
 Coordinate D6 contains atom 1 which is already in QM block.
 Coordinate D6 contains atom 9 which is already in QM block.
 Coordinate D6 contains atom 10 which is already in QM block.
 Coordinate D7 contains atom 6 which is already in QM block.
 Coordinate D7 contains atom 5 which is already in QM block.
 Coordinate D7 contains atom 9 which is already in QM block.
 Coordinate D7 contains atom 1 which is already in QM block.
 Coordinate D8 contains atom 6 which is already in QM block.
 Coordinate D8 contains atom 5 which is already in QM block.
 Coordinate D8 contains atom 9 which is already in QM block.
 Coordinate D8 contains atom 10 which is already in QM block.
 Coordinate D9 contains atom 7 which is already in QM block.
 Coordinate D9 contains atom 5 which is already in QM block.
 Coordinate D9 contains atom 9 which is already in QM block.
 Coordinate D9 contains atom 1 which is already in QM block.
 Coordinate D10 contains atom 7 which is already in QM block.
 Coordinate D10 contains atom 5 which is already in QM block.
 Coordinate D10 contains atom 9 which is already in QM block.
 Coordinate D10 contains atom 10 which is already in QM block.
 Coordinate D11 contains atom 8 which is already in QM block.
 Coordinate D11 contains atom 5 which is already in QM block.
 Coordinate D11 contains atom 9 which is already in QM block.
 Coordinate D11 contains atom 1 which is already in QM block.
 Coordinate D12 contains atom 8 which is already in QM block.
 Coordinate D12 contains atom 5 which is already in QM block.
 Coordinate D12 contains atom 9 which is already in QM block.
 Coordinate D12 contains atom 10 which is already in QM block.
 Saved connectivity
 I=     1 IAn=  6 IBond, RBType=     2  1.00     3  1.00     4  1.00     9  1.00
 I=     2 IAn=  1 IBond, RBType=     1  1.00
 I=     3 IAn=  1 IBond, RBType=     1  1.00
 I=     4 IAn=  1 IBond, RBType=     1  1.00
 I=     5 IAn=  6 IBond, RBType=     6  1.00     7  1.00     8  1.00     9  1.00
 I=     6 IAn=  1 IBond, RBType=     5  1.00
 I=     7 IAn=  1 IBond, RBType=     5  1.00
 I=     8 IAn=  1 IBond, RBType=     5  1.00
 I=     9 IAn=  6 IBond, RBType=     1  1.00     5  1.00    10  2.00
 I=    10 IAn=  8 IBond, RBType=     9  2.00
 ITRead=  0  0  0  0  0  0  0  0  0  0
 MicOpt= -1 -1 -1 -1 -1 -1 -1 -1 -1 -1
 NAtoms=     10 NQM=       10 NQMF=       0 NMMI=      0 NMMIF=      0
                NMic=       0 NMicF=      0.
 No MM parameters found.
 Leave Link  101 at Sat Aug 10 16:33:08 2019, MaxMem=  4294967296 cpu:               5.6 elap:               0.4

 GradGradGradGradGradGradGradGradGradGradGradGradGradGradGradGradGradGrad
 Berny optimization.
 GetPCM: File not found, return IValue=0.
 Optmz: redundant internal coordinate code flag= 1
 Initialization pass.
                           ----------------------------
                           !    Initial Parameters    !
                           ! (Angstroms and Degrees)  !
 --------------------------                            --------------------------
 ! Name  Definition              Value          Derivative Info.                !
 --------------------------------------------------------------------------------
 ! R1    R(1,2)                  1.0963         calculate D2E/DX2 analytically  !
 ! R2    R(1,3)                  1.0963         calculate D2E/DX2 analytically  !
 ! R3    R(1,4)                  1.0906         calculate D2E/DX2 analytically  !
 ! R4    R(1,9)                  1.5196         calculate D2E/DX2 analytically  !
 ! R5    R(5,6)                  1.0963         calculate D2E/DX2 analytically  !
 ! R6    R(5,7)                  1.0906         calculate D2E/DX2 analytically  !
 ! R7    R(5,8)                  1.0963         calculate D2E/DX2 analytically  !
 ! R8    R(5,9)                  1.5196         calculate D2E/DX2 analytically  !
 ! R9    R(9,10)                 1.2158         calculate D2E/DX2 analytically  !
 ! A1    A(2,1,3)              106.7713         calculate D2E/DX2 analytically  !
 ! A2    A(2,1,4)              109.6463         calculate D2E/DX2 analytically  !
 ! A3    A(2,1,9)              110.467          calculate D2E/DX2 analytically  !
 ! A4    A(3,1,4)              109.6463         calculate D2E/DX2 analytically  !
 ! A5    A(3,1,9)              110.467          calculate D2E/DX2 analytically  !
 ! A6    A(4,1,9)              109.794          calculate D2E/DX2 analytically  !
 ! A7    A(6,5,7)              109.6463         calculate D2E/DX2 analytically  !
 ! A8    A(6,5,8)              106.7713         calculate D2E/DX2 analytically  !
 ! A9    A(6,5,9)              110.467          calculate D2E/DX2 analytically  !
 ! A10   A(7,5,8)              109.6463         calculate D2E/DX2 analytically  !
 ! A11   A(7,5,9)              109.794          calculate D2E/DX2 analytically  !
 ! A12   A(8,5,9)              110.467          calculate D2E/DX2 analytically  !
 ! A13   A(1,9,5)              116.5411         calculate D2E/DX2 analytically  !
 ! A14   A(1,9,10)             121.7295         calculate D2E/DX2 analytically  !
 ! A15   A(5,9,10)             121.7295         calculate D2E/DX2 analytically  !
 ! D1    D(2,1,9,5)            -58.9538         calculate D2E/DX2 analytically  !
 ! D2    D(2,1,9,10)           121.0462         calculate D2E/DX2 analytically  !
 ! D3    D(3,1,9,5)             58.9538         calculate D2E/DX2 analytically  !
 ! D4    D(3,1,9,10)          -121.0462         calculate D2E/DX2 analytically  !
 ! D5    D(4,1,9,5)            180.0            calculate D2E/DX2 analytically  !
 ! D6    D(4,1,9,10)             0.0            calculate D2E/DX2 analytically  !
 ! D7    D(6,5,9,1)             58.9538         calculate D2E/DX2 analytically  !
 ! D8    D(6,5,9,10)          -121.0462         calculate D2E/DX2 analytically  !
 ! D9    D(7,5,9,1)            180.0            calculate D2E/DX2 analytically  !
 ! D10   D(7,5,9,10)             0.0            calculate D2E/DX2 analytically  !
 ! D11   D(8,5,9,1)            -58.9538         calculate D2E/DX2 analytically  !
 ! D12   D(8,5,9,10)           121.0462         calculate D2E/DX2 analytically  !
 --------------------------------------------------------------------------------
 Maximum allowed force set to 1.00D+20.
 Trust Radius=3.00D-01 FncErr=1.00D-07 GrdErr=1.00D-07 EigMax=2.50D+02 EigMin=1.00D-04
 Number of steps in this run=      2 maximum allowed number of steps=      2.
 GradGradGradGradGradGradGradGradGradGradGradGradGradGradGradGradGradGrad

 Leave Link  103 at Sat Aug 10 16:33:08 2019, MaxMem=  4294967296 cpu:               0.2 elap:               0.0
                          Input orientation:                          
 ---------------------------------------------------------------------
 Center     Atomic      Atomic             Coordinates (Angstroms)
 Number     Number       Type             X           Y           Z
 ---------------------------------------------------------------------
      1          6           0        0.000000    1.292515   -0.614484
      2          1           0        0.879940    1.339986   -1.266602
      3          1           0       -0.879940    1.339986   -1.266602
      4          1           0        0.000000    2.146315    0.064088
      5          6           0        0.000000   -1.292515   -0.614484
      6          1           0        0.879940   -1.339986   -1.266602
      7          1           0        0.000000   -2.146315    0.064088
      8          1           0       -0.879940   -1.339986   -1.266602
      9          6           0        0.000000    0.000000    0.184708
     10          8           0        0.000000    0.000000    1.400474
 ---------------------------------------------------------------------
                    Distance matrix (angstroms):
                    1          2          3          4          5
     1  C    0.000000
     2  H    1.096269   0.000000
     3  H    1.096269   1.759880   0.000000
     4  H    1.090612   1.787511   1.787511   0.000000
     5  C    2.585030   2.851248   2.851248   3.505141   0.000000
     6  H    2.851248   2.679972   3.206155   3.833970   1.096269
     7  H    3.505141   3.833970   3.833970   4.292630   1.090612
     8  H    2.851248   3.206155   2.679972   3.833970   1.096269
     9  C    1.519639   2.162443   2.162443   2.149702   1.519639
    10  O    2.393878   3.111776   3.111776   2.528358   2.393878
                    6          7          8          9         10
     6  H    0.000000
     7  H    1.787511   0.000000
     8  H    1.759880   1.787511   0.000000
     9  C    2.162443   2.149702   2.162443   0.000000
    10  O    3.111776   2.528358   3.111776   1.215766   0.000000
 Stoichiometry    C3H6O
 Framework group  C2V[C2(CO),SGV(C2H2),X(H4)]
 Deg. of freedom     8
 Full point group                 C2V     NOp   4
 Largest Abelian subgroup         C2V     NOp   4
 Largest concise Abelian subgroup C2V     NOp   4
                         Standard orientation:                         
 ---------------------------------------------------------------------
 Center     Atomic      Atomic             Coordinates (Angstroms)
 Number     Number       Type             X           Y           Z
 ---------------------------------------------------------------------
      1          6           0        0.000000    1.292515   -0.614484
      2          1           0        0.879940    1.339986   -1.266602
      3          1           0       -0.879940    1.339986   -1.266602
      4          1           0        0.000000    2.146315    0.064088
      5          6           0       -0.000000   -1.292515   -0.614484
      6          1           0        0.879940   -1.339986   -1.266602
      7          1           0       -0.000000   -2.146315    0.064088
      8          1           0       -0.879940   -1.339986   -1.266602
      9          6           0        0.000000    0.000000    0.184708
     10          8           0        0.000000    0.000000    1.400474
 ---------------------------------------------------------------------
 Rotational constants (GHZ):          10.1020290           8.4597020           4.8817463
 Standard basis: 6-31G(d,p) (6D, 7F)
 There are    36 symmetry adapted cartesian basis functions of A1  symmetry.
 There are    12 symmetry adapted cartesian basis functions of A2  symmetry.
 There are    16 symmetry adapted cartesian basis functions of B1  symmetry.
 There are    26 symmetry adapted cartesian basis functions of B2  symmetry.
 There are    36 symmetry adapted basis functions of A1  symmetry.
 There are    12 symmetry adapted basis functions of A2  symmetry.
 There are    16 symmetry adapted basis functions of B1  symmetry.
 There are    26 symmetry adapted basis functions of B2  symmetry.
    90 basis functions,   154 primitive gaussians,    90 cartesian basis functions
    16 alpha electrons       16 beta electrons
       nuclear repulsion energy       119.0325529872 Hartrees.
 NAtoms=   10 NActive=   10 NUniq=    5 SFac= 4.00D+00 NAtFMM=   60 NAOKFM=F Big=F
 Integral buffers will be    131072 words long.
 Raffenetti 2 integral format.
 Two-electron integral symmetry is turned on.
 One-electron integrals computed using PRISM.
 NBasis=    90 RedAO= T EigKep=  4.62D-03  NBF=    36    12    16    26
 NBsUse=    90 1.00D-06 EigRej= -1.00D+00 NBFU=    36    12    16    26
 ExpMin= 1.61D-01 ExpMax= 5.48D+03 ExpMxC= 8.25D+02 IAcc=3 IRadAn=         5 AccDes= 0.00D+00
 Harris functional with IExCor=  402 and IRadAn=       5 diagonalized for initial guess.
 HarFok:  IExCor=  402 AccDes= 0.00D+00 IRadAn=         5 IDoV= 1 UseB2=F ITyADJ=14
 ICtDFT=  3500011 ScaDFX=  1.000000  1.000000  1.000000  1.000000
 FoFCou: FMM=F IPFlag=           0 FMFlag=      100000 FMFlg1=           0
         NFxFlg=           0 DoJE=T BraDBF=F KetDBF=T FulRan=T
         wScrn=  0.000000 ICntrl=       500 IOpCl=  0 I1Cent=   200000004 NGrid=           0
         NMat0=    1 NMatS0=      1 NMatT0=    0 NMatD0=    1 NMtDS0=    0 NMtDT0=    0
 Petite list used in FoFCou.
 Initial guess orbital symmetries:
       Occupied  (A1) (B2) (A1) (A1) (A1) (A1) (B2) (A1) (B2) (A1)
                 (B1) (A2) (A1) (B2) (B1) (B2)
       Virtual   (B1) (A1) (A1) (B2) (B1) (A1) (A2) (B2) (B2) (A1)
                 (A1) (B2) (B1) (A2) (A1) (A1) (B2) (B1) (B2) (A1)
                 (B1) (A1) (B2) (A2) (A1) (A1) (B2) (B1) (B2) (A1)
                 (A2) (B1) (B2) (A1) (B2) (A2) (A1) (B1) (B2) (A1)
                 (A2) (A1) (A1) (B1) (A2) (B1) (B2) (A2) (A1) (B2)
                 (B1) (B2) (A1) (A2) (B1) (A1) (B2) (A1) (B2) (A2)
                 (A1) (B1) (B2) (A1) (A1) (B2) (B1) (B2) (A2) (A1)
                 (A1) (A1) (B2) (A1)
 The electronic state of the initial guess is 1-A1.
 Keep R1 ints in memory in symmetry-blocked form, NReq=23025940.
 Requested convergence on RMS density matrix=1.00D-08 within 128 cycles.
 Requested convergence on MAX density matrix=1.00D-06.
 Requested convergence on             energy=1.00D-06.
 No special actions if energy rises.
 Integral accuracy reduced to 1.0D-05 until final iterations.
 Initial convergence to 1.0D-05 achieved.  Increase integral accuracy.
 SCF Done:  E(RB3LYP) =  -193.164211535     A.U. after   12 cycles
            NFock= 12  Conv=0.99D-08     -V/T= 2.0094
 DoSCS=F DFT=T ScalE2(SS,OS)=  1.000000  1.000000
 Range of M.O.s used for correlation:     1    90
 NBasis=    90 NAE=    16 NBE=    16 NFC=     0 NFV=     0
 NROrb=     90 NOA=    16 NOB=    16 NVA=    74 NVB=    74
 Symmetrizing basis deriv contribution to polar:
 IMax=3 JMax=2 DiffMx= 0.00D+00
 G2DrvN: will do    11 centers at a time, making    1 passes.
 Calling FoFCou, ICntrl=  3107 FMM=F I1Cent=   0 AccDes= 0.00D+00.
 End of G2Drv F.D. properties file   721 does not exist.
 End of G2Drv F.D. properties file   722 does not exist.
 End of G2Drv F.D. properties file   788 does not exist.
          IDoAtm=1111111111
          Differentiating once with respect to electric field.
                with respect to dipole field.
          Differentiating once with respect to nuclear coordinates.
 Keep R1 ints in memory in symmetry-blocked form, NReq=22979523.
          There are    18 degrees of freedom in the 1st order CPHF.  IDoFFX=4 NUNeed=    18.
     18 vectors produced by pass  0 Test12= 6.58D-15 5.56D-09 XBig12= 3.30D+01 4.14D+00.
 AX will form    18 AO Fock derivatives at one time.
     18 vectors produced by pass  1 Test12= 6.58D-15 5.56D-09 XBig12= 9.99D+00 1.03D+00.
     18 vectors produced by pass  2 Test12= 6.58D-15 5.56D-09 XBig12= 1.31D-01 6.82D-02.
     18 vectors produced by pass  3 Test12= 6.58D-15 5.56D-09 XBig12= 1.07D-03 1.01D-02.
     18 vectors produced by pass  4 Test12= 6.58D-15 5.56D-09 XBig12= 3.41D-06 4.08D-04.
     16 vectors produced by pass  5 Test12= 6.58D-15 5.56D-09 XBig12= 3.84D-09 1.22D-05.
      3 vectors produced by pass  6 Test12= 6.58D-15 5.56D-09 XBig12= 3.24D-12 4.71D-07.
      1 vectors produced by pass  7 Test12= 6.58D-15 5.56D-09 XBig12= 3.41D-15 1.11D-08.
 InvSVY:  IOpt=1 It=  1 EMax= 1.16D-15
 Solved reduced A of dimension   110 with    18 vectors.
 Isotropic polarizability for W=    0.000000       34.31 Bohr**3.
 End of Minotr F.D. properties file   721 does not exist.
 End of Minotr F.D. properties file   722 does not exist.
 End of Minotr F.D. properties file   788 does not exist.

 **********************************************************************

            Population analysis using the SCF Density.

 **********************************************************************

 Orbital symmetries:
       Occupied  (A1) (A1) (B2) (A1) (A1) (A1) (B2) (A1) (B1) (B2)
                 (A1) (A2) (A1) (B2) (B1) (B2)
       Virtual   (B1) (A1) (A1) (B2) (B1) (A2) (B2) (A1) (B2) (A1)
                 (A1) (B1) (A2) (A1) (B2) (B1) (A1) (B2) (B2) (A1)
                 (B1) (A2) (B2) (A1) (A1) (A1) (B2) (B1) (B2) (A1)
                 (A2) (B2) (B1) (A1) (B2) (A2) (B1) (A1) (B2) (A1)
                 (A2) (A1) (A1) (A2) (B1) (B1) (B2) (A2) (A1) (B2)
                 (B1) (B2) (A1) (A2) (B1) (A1) (B2) (A1) (B2) (A2)
                 (A1) (B1) (B2) (A1) (A1) (B2) (B1) (B2) (A2) (A1)
                 (A1) (A1) (B2) (A1)
 The electronic state is 1-A1.
 Alpha  occ. eigenvalues --  -19.13557 -10.27742 -10.19089 -10.19088  -1.03543
 Alpha  occ. eigenvalues --   -0.76709  -0.70976  -0.53048  -0.45736  -0.45736
 Alpha  occ. eigenvalues --   -0.44733  -0.40298  -0.39256  -0.37786  -0.34650
 Alpha  occ. eigenvalues --   -0.24403
 Alpha virt. eigenvalues --   -0.01093   0.08808   0.13780   0.14849   0.16086
 Alpha virt. eigenvalues --    0.17117   0.18068   0.19768   0.28968   0.32214
 Alpha virt. eigenvalues --    0.48988   0.53365   0.55850   0.56794   0.57322
 Alpha virt. eigenvalues --    0.68620   0.68839   0.70169   0.74256   0.77290
 Alpha virt. eigenvalues --    0.81534   0.86978   0.87168   0.87347   0.89869
 Alpha virt. eigenvalues --    0.91229   0.93866   1.00930   1.09748   1.17547
 Alpha virt. eigenvalues --    1.28947   1.37985   1.38305   1.48819   1.65510
 Alpha virt. eigenvalues --    1.70249   1.73849   1.73950   1.75647   1.86216
 Alpha virt. eigenvalues --    1.94077   1.96314   2.01604   2.02430   2.02589
 Alpha virt. eigenvalues --    2.05231   2.06905   2.09735   2.15805   2.25642
 Alpha virt. eigenvalues --    2.31462   2.34293   2.36651   2.52514   2.54595
 Alpha virt. eigenvalues --    2.63220   2.65012   2.69716   2.79056   2.81147
 Alpha virt. eigenvalues --    2.87946   2.90518   2.99544   3.03416   3.16021
 Alpha virt. eigenvalues --    3.25453   3.39149   3.41064   3.42773   3.45722
 Alpha virt. eigenvalues --    3.97984   4.17356   4.47953   4.58137
          Condensed to atoms (all electrons):
               1          2          3          4          5          6
     1  C    5.206830   0.359707   0.359707   0.359585  -0.140156   0.003025
     2  H    0.359707   0.581885  -0.028381  -0.022699   0.003025   0.001060
     3  H    0.359707  -0.028381   0.581885  -0.022699   0.003025  -0.000484
     4  H    0.359585  -0.022699  -0.022699   0.555537   0.006168  -0.000121
     5  C   -0.140156   0.003025   0.003025   0.006168   5.206830   0.359707
     6  H    0.003025   0.001060  -0.000484  -0.000121   0.359707   0.581885
     7  H    0.006168  -0.000121  -0.000121  -0.000205   0.359585  -0.022699
     8  H    0.003025  -0.000484   0.001060  -0.000121   0.359707  -0.028381
     9  C    0.313952  -0.021372  -0.021372  -0.019510   0.313952  -0.021372
    10  O   -0.084807   0.001576   0.001576   0.005446  -0.084807   0.001576
               7          8          9         10
     1  C    0.006168   0.003025   0.313952  -0.084807
     2  H   -0.000121  -0.000484  -0.021372   0.001576
     3  H   -0.000121   0.001060  -0.021372   0.001576
     4  H   -0.000205  -0.000121  -0.019510   0.005446
     5  C    0.359585   0.359707   0.313952  -0.084807
     6  H   -0.022699  -0.028381  -0.021372   0.001576
     7  H    0.555537  -0.022699  -0.019510   0.005446
     8  H   -0.022699   0.581885  -0.021372   0.001576
     9  C   -0.019510  -0.021372   4.466887   0.608206
    10  O    0.005446   0.001576   0.608206   7.972108
 Mulliken charges:
               1
     1  C   -0.387036
     2  H    0.125804
     3  H    0.125804
     4  H    0.138619
     5  C   -0.387036
     6  H    0.125804
     7  H    0.138619
     8  H    0.125804
     9  C    0.421514
    10  O   -0.427894
 Sum of Mulliken charges =   0.00000
 Mulliken charges with hydrogens summed into heavy atoms:
               1
     1  C    0.003190
     5  C    0.003190
     9  C    0.421514
    10  O   -0.427894
 APT charges:
               1
     1  C   -0.105059
     2  H    0.012233
     3  H    0.012233
     4  H    0.007843
     5  C   -0.105059
     6  H    0.012233
     7  H    0.007843
     8  H    0.012233
     9  C    0.780009
    10  O   -0.634512
 Sum of APT charges =  -0.00000
 APT charges with hydrogens summed into heavy atoms:
               1
     1  C   -0.072748
     5  C   -0.072748
     9  C    0.780009
    10  O   -0.634512
 Electronic spatial extent (au):  <R**2>=            293.2126
 Charge=             -0.0000 electrons
 Dipole moment (field-independent basis, Debye):
    X=              0.0000    Y=             -0.0000    Z=             -2.8293  Tot=              2.8293
 Quadrupole moment (field-independent basis, Debye-Ang):
   XX=            -23.8983   YY=            -23.4139   ZZ=            -28.1761
   XY=              0.0000   XZ=             -0.0000   YZ=              0.0000
 Traceless Quadrupole moment (field-independent basis, Debye-Ang):
   XX=              1.2644   YY=              1.7489   ZZ=             -3.0133
   XY=              0.0000   XZ=             -0.0000   YZ=              0.0000
 Octapole moment (field-independent basis, Debye-Ang**2):
  XXX=              0.0000  YYY=              0.0000  ZZZ=             -1.6669  XYY=             -0.0000
  XXY=              0.0000  XXZ=              0.4063  XZZ=              0.0000  YZZ=             -0.0000
  YYZ=              2.2393  XYZ=             -0.0000
 Hexadecapole moment (field-independent basis, Debye-Ang**3):
 XXXX=            -35.4395 YYYY=           -194.8349 ZZZZ=           -147.8877 XXXY=             -0.0000
 XXXZ=             -0.0000 YYYX=             -0.0000 YYYZ=             -0.0000 ZZZX=             -0.0000
 ZZZY=             -0.0000 XXYY=            -39.4028 XXZZ=            -26.5560 YYZZ=            -56.8347
 XXYZ=             -0.0000 YYXZ=             -0.0000 ZZXY=             -0.0000
 N-N= 1.190325529872D+02 E-N=-6.880761826485D+02  KE= 1.913591254023D+02
 Symmetry A1   KE= 1.397355233386D+02
 Symmetry A2   KE= 2.022455963065D+00
 Symmetry B1   KE= 5.567599611555D+00
 Symmetry B2   KE= 4.403354648913D+01
  Exact polarizability:  27.221  -0.000  36.688   0.000   0.000  39.018
 Approx polarizability:  38.128   0.000  43.386  -0.000  -0.000  62.243
 Calling FoFJK, ICntrl=    100127 FMM=F ISym2X=1 I1Cent= 0 IOpClX= 0 NMat=1 NMatS=1 NMatT=0.
 Full mass-weighted force constant matrix:
 Low frequencies ---   -4.9841   -3.5341   -0.8839   -0.0013   -0.0012    0.0011
 Low frequencies ---   54.3731  138.3963  376.8461
 Diagonal vibrational polarizability:
        0.5459838       3.7937858       2.0405065
 Harmonic frequencies (cm**-1), IR intensities (KM/Mole), Raman scattering
 activities (A**4/AMU), depolarization ratios for plane and unpolarized
 incident light, reduced masses (AMU), force constants (mDyne/A),
 and normal coordinates:
                      1                      2                      3
                     A2                     B1                     A1
 Frequencies --     54.3696               138.3957               376.8461
 Red. masses --      1.0173                 1.1272                 2.1802
 Frc consts  --      0.0018                 0.0127                 0.1824
 IR Inten    --      0.0000                 0.0989                 1.3122
  Atom  AN      X      Y      Z        X      Y      Z        X      Y      Z
     1   6    -0.02   0.00  -0.00     0.04   0.00  -0.00    -0.00   0.15   0.10
     2   1    -0.25  -0.15  -0.32    -0.19  -0.16  -0.32     0.01   0.37   0.12
     3   1    -0.25   0.15   0.32    -0.19   0.16   0.32    -0.01   0.37   0.12
     4   1     0.35   0.00  -0.00     0.41   0.00  -0.00     0.00  -0.07   0.38
     5   6     0.02  -0.00  -0.00     0.04   0.00   0.00     0.00  -0.15   0.10
     6   1     0.25  -0.15   0.32    -0.19   0.16  -0.32     0.01  -0.37   0.12
     7   1    -0.35  -0.00  -0.00     0.41   0.00   0.00    -0.00   0.07   0.38
     8   1     0.25   0.15  -0.32    -0.19  -0.16   0.32    -0.01  -0.37   0.12
     9   6    -0.00   0.00   0.00     0.02   0.00  -0.00     0.00  -0.00  -0.13
    10   8     0.00  -0.00   0.00    -0.07  -0.00  -0.00    -0.00   0.00  -0.13
                      4                      5                      6
                     B1                     B2                     A1
 Frequencies --    485.7536               530.6981               784.6916
 Red. masses --      1.9997                 3.5299                 3.5953
 Frc consts  --      0.2780                 0.5857                 1.3043
 IR Inten    --      0.3387                14.8391                 0.9241
  Atom  AN      X      Y      Z        X      Y      Z        X      Y      Z
     1   6    -0.02   0.00  -0.00    -0.00  -0.12   0.16     0.00   0.27  -0.13
     2   1    -0.16   0.37  -0.15     0.01   0.09   0.19    -0.00   0.19  -0.15
     3   1    -0.16  -0.37   0.15    -0.01   0.09   0.19     0.00   0.19  -0.15
     4   1    -0.31   0.00  -0.00    -0.00  -0.35   0.44    -0.00   0.42  -0.31
     5   6    -0.02   0.00   0.00    -0.00  -0.12  -0.16    -0.00  -0.27  -0.13
     6   1    -0.16  -0.37  -0.15    -0.01   0.09  -0.19    -0.00  -0.19  -0.15
     7   1    -0.31   0.00   0.00    -0.00  -0.35  -0.44     0.00  -0.42  -0.31
     8   1    -0.16   0.37   0.15     0.01   0.09  -0.19     0.00  -0.19  -0.15
     9   6     0.28   0.00   0.00     0.00  -0.13   0.00    -0.00   0.00   0.14
    10   8    -0.10  -0.00   0.00    -0.00   0.31  -0.00     0.00  -0.00   0.17
                      7                      8                      9
                     A2                     B2                     A1
 Frequencies --    887.2013               888.4119              1086.8853
 Red. masses --      1.2089                 1.5643                 1.5637
 Frc consts  --      0.5606                 0.7275                 1.0884
 IR Inten    --      0.0000                 6.4809                 0.0187
  Atom  AN      X      Y      Z        X      Y      Z        X      Y      Z
     1   6     0.10  -0.00   0.00    -0.00  -0.03   0.13     0.00  -0.06  -0.12
     2   1    -0.12   0.39  -0.24    -0.04  -0.40   0.05     0.06   0.32   0.01
     3   1    -0.12  -0.39   0.24     0.04  -0.40   0.05    -0.06   0.32   0.01
     4   1    -0.23   0.00  -0.00     0.00   0.28  -0.26     0.00  -0.40   0.32
     5   6    -0.10  -0.00  -0.00     0.00  -0.03  -0.13    -0.00   0.06  -0.12
     6   1     0.12   0.39   0.24     0.04  -0.40  -0.05     0.06  -0.32   0.01
     7   1     0.23   0.00   0.00    -0.00   0.28   0.26     0.00   0.40   0.32
     8   1     0.12  -0.39  -0.24    -0.04  -0.40  -0.05    -0.06  -0.32   0.01
     9   6    -0.00   0.00  -0.00    -0.00   0.11  -0.00     0.00  -0.00   0.04
    10   8     0.00   0.00  -0.00     0.00   0.02  -0.00    -0.00  -0.00   0.10
                     10                     11                     12
                     B1                     B2                     A1
 Frequencies --   1120.9621              1238.4689              1395.3120
 Red. masses --      1.9623                 2.6982                 1.2316
 Frc consts  --      1.4528                 2.4384                 1.4127
 IR Inten    --      4.0731                76.2383                14.9520
  Atom  AN      X      Y      Z        X      Y      Z        X      Y      Z
     1   6    -0.13   0.00   0.00    -0.00  -0.10  -0.05    -0.00  -0.08   0.06
     2   1     0.11  -0.32   0.27     0.13  -0.04   0.16    -0.18   0.34  -0.17
     3   1     0.11   0.32  -0.27    -0.13  -0.04   0.16     0.18   0.34  -0.17
     4   1     0.28   0.00  -0.00    -0.00  -0.44   0.38     0.00   0.20  -0.30
     5   6    -0.13   0.00   0.00    -0.00  -0.10   0.05     0.00   0.08   0.06
     6   1     0.11   0.32   0.27    -0.13  -0.04  -0.16    -0.18  -0.34  -0.17
     7   1     0.28  -0.00  -0.00     0.00  -0.44  -0.38    -0.00  -0.20  -0.30
     8   1     0.11  -0.32  -0.27     0.13  -0.04  -0.16     0.18  -0.34  -0.17
     9   6     0.23  -0.00  -0.00     0.00   0.36   0.00    -0.00  -0.00  -0.00
    10   8    -0.04   0.00  -0.00    -0.00  -0.06  -0.00     0.00   0.00  -0.00
                     13                     14                     15
                     B2                     B2                     A2
 Frequencies --   1399.1724              1473.3181              1479.9298
 Red. masses --      1.4487                 1.0422                 1.0525
 Frc consts  --      1.6709                 1.3329                 1.3581
 IR Inten    --     56.7546                 0.2626                 0.0000
  Atom  AN      X      Y      Z        X      Y      Z        X      Y      Z
     1   6    -0.00   0.11  -0.05    -0.00  -0.02  -0.03    -0.05  -0.00  -0.00
     2   1     0.16  -0.38   0.13     0.27   0.10   0.35     0.04   0.31   0.12
     3   1    -0.16  -0.38   0.13    -0.27   0.10   0.35     0.04  -0.31  -0.12
     4   1     0.00  -0.16   0.29     0.00   0.17  -0.25     0.52   0.00  -0.00
     5   6     0.00   0.11   0.05    -0.00  -0.02   0.03     0.05   0.00  -0.00
     6   1    -0.16  -0.38  -0.13    -0.27   0.10  -0.35    -0.04   0.31  -0.12
     7   1     0.00  -0.16  -0.29     0.00   0.17   0.25    -0.52  -0.00  -0.00
     8   1     0.16  -0.38  -0.13     0.27   0.10  -0.35    -0.04  -0.31   0.12
     9   6    -0.00  -0.09  -0.00    -0.00  -0.02  -0.00    -0.00   0.00   0.00
    10   8     0.00   0.01   0.00     0.00   0.01   0.00     0.00  -0.00  -0.00
                     16                     17                     18
                     A1                     B1                     A1
 Frequencies --   1482.3099              1501.8069              1822.0475
 Red. masses --      1.0630                 1.0446                 9.8410
 Frc consts  --      1.3762                 1.3881                19.2489
 IR Inten    --     21.4208                18.3929               152.8450
  Atom  AN      X      Y      Z        X      Y      Z        X      Y      Z
     1   6     0.00  -0.03  -0.02    -0.03  -0.00   0.00    -0.00   0.01  -0.04
     2   1     0.26   0.12   0.35     0.04   0.33   0.10    -0.09   0.08  -0.14
     3   1    -0.26   0.12   0.35     0.04  -0.33  -0.10     0.09   0.08  -0.14
     4   1    -0.00   0.17  -0.26     0.51  -0.00   0.00     0.00  -0.16   0.21
     5   6    -0.00   0.03  -0.02    -0.03   0.00  -0.00    -0.00  -0.01  -0.04
     6   1     0.26  -0.12   0.35     0.04  -0.33   0.10    -0.09  -0.08  -0.14
     7   1     0.00  -0.17  -0.26     0.51  -0.00  -0.00     0.00   0.16   0.21
     8   1    -0.26  -0.12   0.35     0.04   0.33  -0.10     0.09  -0.08  -0.14
     9   6     0.00  -0.00   0.02    -0.03   0.00  -0.00    -0.00  -0.00   0.71
    10   8     0.00   0.00  -0.03     0.00  -0.00   0.00     0.00  -0.00  -0.46
                     19                     20                     21
                     B2                     A1                     A2
 Frequencies --   3040.0376              3046.7536              3100.3474
 Red. masses --      1.0377                 1.0376                 1.0993
 Frc consts  --      5.6507                 5.6747                 6.2257
 IR Inten    --      1.4190                 6.8792                 0.0000
  Atom  AN      X      Y      Z        X      Y      Z        X      Y      Z
     1   6     0.00  -0.02   0.03     0.00  -0.02   0.03    -0.06   0.00   0.00
     2   1     0.37   0.02  -0.27     0.37   0.02  -0.27     0.39   0.02  -0.30
     3   1    -0.37   0.02  -0.27    -0.37   0.02  -0.27     0.39  -0.02   0.30
     4   1     0.00   0.21   0.18     0.00   0.22   0.18    -0.01  -0.00  -0.00
     5   6     0.00  -0.02  -0.03    -0.00   0.02   0.03     0.06  -0.00   0.00
     6   1    -0.37   0.02   0.27     0.37  -0.02  -0.27    -0.39   0.02   0.30
     7   1     0.00   0.21  -0.18    -0.00  -0.22   0.18     0.01   0.00  -0.00
     8   1     0.37   0.02   0.27    -0.37  -0.02  -0.27    -0.39  -0.02  -0.30
     9   6    -0.00   0.00   0.00    -0.00   0.00   0.00     0.00  -0.00  -0.00
    10   8    -0.00  -0.00  -0.00     0.00  -0.00  -0.00    -0.00   0.00   0.00
                     22                     23                     24
                     B1                     B2                     A1
 Frequencies --   3107.4042              3164.6168              3165.4483
 Red. masses --      1.0996                 1.1020                 1.1025
 Frc consts  --      6.2556                 6.5025                 6.5088
 IR Inten    --     22.1247                11.0602                 8.5948
  Atom  AN      X      Y      Z        X      Y      Z        X      Y      Z
     1   6    -0.06   0.00   0.00    -0.00  -0.04  -0.05    -0.00  -0.04  -0.05
     2   1     0.39   0.02  -0.30    -0.15  -0.01   0.10    -0.16  -0.01   0.11
     3   1     0.39  -0.02   0.30     0.15  -0.01   0.10     0.16  -0.01   0.11
     4   1    -0.01  -0.00  -0.00     0.00   0.51   0.41    -0.00   0.51   0.41
     5   6    -0.06   0.00  -0.00    -0.00  -0.04   0.05     0.00   0.04  -0.05
     6   1     0.39  -0.02  -0.30     0.15  -0.01  -0.10    -0.16   0.01   0.11
     7   1    -0.01  -0.00   0.00     0.00   0.51  -0.41     0.00  -0.51   0.41
     8   1     0.39   0.02   0.30    -0.15  -0.01  -0.10     0.16   0.01   0.11
     9   6    -0.00   0.00   0.00     0.00  -0.00  -0.00    -0.00  -0.00  -0.00
    10   8    -0.00   0.00  -0.00    -0.00   0.00   0.00     0.00   0.00   0.00

 -------------------
 - Thermochemistry -
 -------------------
 Temperature   298.150 Kelvin.  Pressure   1.00000 Atm.
 Atom     1 has atomic number  6 and mass  12.00000
 Atom     2 has atomic number  1 and mass   1.00783
 Atom     3 has atomic number  1 and mass   1.00783
 Atom     4 has atomic number  1 and mass   1.00783
 Atom     5 has atomic number  6 and mass  12.00000
 Atom     6 has atomic number  1 and mass   1.00783
 Atom     7 has atomic number  1 and mass   1.00783
 Atom     8 has atomic number  1 and mass   1.00783
 Atom     9 has atomic number  6 and mass  12.00000
 Atom    10 has atomic number  8 and mass  15.99491
 Molecular mass:    58.04186 amu.
 Principal axes and moments of inertia in atomic units:
                           1         2         3
     Eigenvalues --   178.65136 213.33390 369.69172
           X            0.00000   0.00000   1.00000
           Y            1.00000   0.00000   0.00000
           Z            0.00000   1.00000   0.00000
 This molecule is an asymmetric top.
 Rotational symmetry number  2.
 Rotational temperatures (Kelvin)      0.48482     0.40600     0.23429
 Rotational constants (GHZ):          10.10203     8.45970     4.88175
 Zero-point vibrational energy     219940.6 (Joules/Mol)
                                   52.56705 (Kcal/Mol)
 Warning -- explicit consideration of   5 degrees of freedom as
           vibrations may cause significant error
 Vibrational temperatures:     78.23   199.12   542.20   698.89   763.56
          (Kelvin)           1129.00  1276.48  1278.23  1563.79  1612.81
                             1781.88  2007.54  2013.10  2119.78  2129.29
                             2132.71  2160.77  2621.52  4373.94  4383.60
                             4460.71  4470.86  4553.18  4554.37
 
 Zero-point correction=                           0.083771 (Hartree/Particle)
 Thermal correction to Energy=                    0.089160
 Thermal correction to Enthalpy=                  0.090104
 Thermal correction to Gibbs Free Energy=         0.056156
 Sum of electronic and zero-point Energies=           -193.080441
 Sum of electronic and thermal Energies=              -193.075052
 Sum of electronic and thermal Enthalpies=            -193.074108
 Sum of electronic and thermal Free Energies=         -193.108055
 
                     E (Thermal)             CV                S
                      KCal/Mol        Cal/Mol-Kelvin    Cal/Mol-Kelvin
 Total                   55.949             16.835             71.449
 Electronic               0.000              0.000              0.000
 Translational            0.889              2.981             38.096
 Rotational               0.889              2.981             22.781
 Vibrational             54.171             10.874             10.571
 Vibration     1          0.596              1.976              4.652
 Vibration     2          0.614              1.915              2.826
 Vibration     3          0.747              1.519              1.052
 Vibration     4          0.842              1.282              0.695
 Vibration     5          0.886              1.182              0.586
                       Q            Log10(Q)             Ln(Q)
 Total Bot       0.147886D-25        -25.830072        -59.475938
 Total V=0       0.503324D+13         12.701848         29.247086
 Vib (Bot)       0.400492D-37        -37.397406        -86.110710
 Vib (Bot)    1  0.380049D+01          0.579840          1.335131
 Vib (Bot)    2  0.146986D+01          0.167277          0.385170
 Vib (Bot)    3  0.480841D+00         -0.317999         -0.732219
 Vib (Bot)    4  0.342600D+00         -0.465213         -1.071193
 Vib (Bot)    5  0.301159D+00         -0.521204         -1.200116
 Vib (V=0)       0.136306D+02          1.134514          2.612314
 Vib (V=0)    1  0.433324D+01          0.636813          1.466316
 Vib (V=0)    2  0.205258D+01          0.312300          0.719097
 Vib (V=0)    3  0.119369D+01          0.076892          0.177051
 Vib (V=0)    4  0.110611D+01          0.043800          0.100853
 Vib (V=0)    5  0.108369D+01          0.034906          0.080374
 Electronic      0.100000D+01          0.000000          0.000000
 Translational   0.173806D+08          7.240066         16.670868
 Rotational      0.212456D+05          4.327269          9.963904
                           ----------------------------
                           ! Normal Mode     1        !
 --------------------------                            --------------------------
 ! Name  Definition              Value          Relative Weight (%)             !
 --------------------------------------------------------------------------------
 ! R1    R(1,2)                 -0.0016                  0.1                    !
 ! R2    R(1,3)                  0.0016                  0.1                    !
 ! R3    R(1,4)                  0.0                     0.0                    !
 ! R4    R(1,9)                  0.0                     0.0                    !
 ! R5    R(5,6)                  0.0016                  0.1                    !
 ! R6    R(5,7)                  0.0                     0.0                    !
 ! R7    R(5,8)                 -0.0016                  0.1                    !
 ! R8    R(5,9)                  0.0                     0.0                    !
 ! R9    R(9,10)                 0.0                     0.0                    !
 ! A1    A(2,1,3)                0.0                     0.0                    !
 ! A2    A(2,1,4)                0.0104                  0.4                    !
 ! A3    A(2,1,9)                0.0173                  0.7                    !
 ! A4    A(3,1,4)               -0.0104                  0.4                    !
 ! A5    A(3,1,9)               -0.0173                  0.7                    !
 ! A6    A(4,1,9)                0.0                     0.0                    !
 ! A7    A(6,5,7)               -0.0104                  0.4                    !
 ! A8    A(6,5,8)                0.0                     0.0                    !
 ! A9    A(6,5,9)               -0.0173                  0.7                    !
 ! A10   A(7,5,8)                0.0104                  0.4                    !
 ! A11   A(7,5,9)                0.0                     0.0                    !
 ! A12   A(8,5,9)                0.0173                  0.7                    !
 ! A13   A(1,9,5)                0.0                     0.0                    !
 ! A14   A(1,9,10)               0.0                     0.0                    !
 ! A15   A(5,9,10)               0.0                     0.0                    !
 ! D1    D(2,1,9,5)              0.2202                  8.3                    !
 ! D2    D(2,1,9,10)             0.2202                  8.3                    !
 ! D3    D(3,1,9,5)              0.2202                  8.3                    !
 ! D4    D(3,1,9,10)             0.2202                  8.3                    !
 ! D5    D(4,1,9,5)              0.1961                  7.4                    !
 ! D6    D(4,1,9,10)             0.1961                  7.4                    !
 ! D7    D(6,5,9,1)              0.2202                  8.3                    !
 ! D8    D(6,5,9,10)             0.2202                  8.3                    !
 ! D9    D(7,5,9,1)              0.1961                  7.4                    !
 ! D10   D(7,5,9,10)             0.1961                  7.4                    !
 ! D11   D(8,5,9,1)              0.2202                  8.3                    !
 ! D12   D(8,5,9,10)             0.2202                  8.3                    !
 --------------------------------------------------------------------------------
                           ----------------------------
                           ! Normal Mode     2        !
 --------------------------                            --------------------------
 ! Name  Definition              Value          Relative Weight (%)             !
 --------------------------------------------------------------------------------
 ! R1    R(1,2)                 -0.0027                  0.1                    !
 ! R2    R(1,3)                  0.0027                  0.1                    !
 ! R3    R(1,4)                  0.0                     0.0                    !
 ! R4    R(1,9)                  0.0                     0.0                    !
 ! R5    R(5,6)                 -0.0027                  0.1                    !
 ! R6    R(5,7)                  0.0                     0.0                    !
 ! R7    R(5,8)                  0.0027                  0.1                    !
 ! R8    R(5,9)                  0.0                     0.0                    !
 ! R9    R(9,10)                 0.0                     0.0                    !
 ! A1    A(2,1,3)                0.0                     0.0                    !
 ! A2    A(2,1,4)                0.0134                  0.4                    !
 ! A3    A(2,1,9)                0.0212                  0.7                    !
 ! A4    A(3,1,4)               -0.0134                  0.4                    !
 ! A5    A(3,1,9)               -0.0212                  0.7                    !
 ! A6    A(4,1,9)                0.0                     0.0                    !
 ! A7    A(6,5,7)                0.0134                  0.4                    !
 ! A8    A(6,5,8)                0.0                     0.0                    !
 ! A9    A(6,5,9)                0.0212                  0.7                    !
 ! A10   A(7,5,8)               -0.0134                  0.4                    !
 ! A11   A(7,5,9)                0.0                     0.0                    !
 ! A12   A(8,5,9)               -0.0212                  0.7                    !
 ! A13   A(1,9,5)                0.0                     0.0                    !
 ! A14   A(1,9,10)               0.0                     0.0                    !
 ! A15   A(5,9,10)               0.0                     0.0                    !
 ! D1    D(2,1,9,5)              0.2279                  7.6                    !
 ! D2    D(2,1,9,10)             0.2655                  8.9                    !
 ! D3    D(3,1,9,5)              0.2279                  7.6                    !
 ! D4    D(3,1,9,10)             0.2655                  8.9                    !
 ! D5    D(4,1,9,5)              0.1974                  6.6                    !
 ! D6    D(4,1,9,10)             0.2351                  7.9                    !
 ! D7    D(6,5,9,1)             -0.2279                  7.6                    !
 ! D8    D(6,5,9,10)            -0.2655                  8.9                    !
 ! D9    D(7,5,9,1)             -0.1974                  6.6                    !
 ! D10   D(7,5,9,10)            -0.2351                  7.9                    !
 ! D11   D(8,5,9,1)             -0.2279                  7.6                    !
 ! D12   D(8,5,9,10)            -0.2655                  8.9                    !
 --------------------------------------------------------------------------------
                           ----------------------------
                           ! Normal Mode     3        !
 --------------------------                            --------------------------
 ! Name  Definition              Value          Relative Weight (%)             !
 --------------------------------------------------------------------------------
 ! R1    R(1,2)                 -0.0001                  0.0                    !
 ! R2    R(1,3)                 -0.0001                  0.0                    !
 ! R3    R(1,4)                  0.0009                  0.1                    !
 ! R4    R(1,9)                  0.0117                  1.2                    !
 ! R5    R(5,6)                 -0.0001                  0.0                    !
 ! R6    R(5,7)                  0.0009                  0.1                    !
 ! R7    R(5,8)                 -0.0001                  0.0                    !
 ! R8    R(5,9)                  0.0117                  1.2                    !
 ! R9    R(9,10)                -0.0008                  0.1                    !
 ! A1    A(2,1,3)                0.0105                  1.1                    !
 ! A2    A(2,1,4)               -0.0018                  0.2                    !
 ! A3    A(2,1,9)                0.0374                  3.8                    !
 ! A4    A(3,1,4)               -0.0018                  0.2                    !
 ! A5    A(3,1,9)                0.0374                  3.8                    !
 ! A6    A(4,1,9)               -0.079                   8.0                    !
 ! A7    A(6,5,7)               -0.0018                  0.2                    !
 ! A8    A(6,5,8)                0.0105                  1.1                    !
 ! A9    A(6,5,9)                0.0374                  3.8                    !
 ! A10   A(7,5,8)               -0.0018                  0.2                    !
 ! A11   A(7,5,9)               -0.079                   8.0                    !
 ! A12   A(8,5,9)                0.0374                  3.8                    !
 ! A13   A(1,9,5)                0.1913                 19.5                    !
 ! A14   A(1,9,10)              -0.0956                  9.7                    !
 ! A15   A(5,9,10)              -0.0956                  9.7                    !
 ! D1    D(2,1,9,5)             -0.0297                  3.0                    !
 ! D2    D(2,1,9,10)            -0.0297                  3.0                    !
 ! D3    D(3,1,9,5)              0.0297                  3.0                    !
 ! D4    D(3,1,9,10)             0.0297                  3.0                    !
 ! D5    D(4,1,9,5)              0.0                     0.0                    !
 ! D6    D(4,1,9,10)             0.0                     0.0                    !
 ! D7    D(6,5,9,1)              0.0297                  3.0                    !
 ! D8    D(6,5,9,10)             0.0297                  3.0                    !
 ! D9    D(7,5,9,1)              0.0                     0.0                    !
 ! D10   D(7,5,9,10)             0.0                     0.0                    !
 ! D11   D(8,5,9,1)             -0.0297                  3.0                    !
 ! D12   D(8,5,9,10)            -0.0297                  3.0                    !
 --------------------------------------------------------------------------------
                           ----------------------------
                           ! Normal Mode     4        !
 --------------------------                            --------------------------
 ! Name  Definition              Value          Relative Weight (%)             !
 --------------------------------------------------------------------------------
 ! R1    R(1,2)                 -0.0039                  0.1                    !
 ! R2    R(1,3)                  0.0039                  0.1                    !
 ! R3    R(1,4)                  0.0                     0.0                    !
 ! R4    R(1,9)                  0.0                     0.0                    !
 ! R5    R(5,6)                 -0.0039                  0.1                    !
 ! R6    R(5,7)                  0.0                     0.0                    !
 ! R7    R(5,8)                  0.0039                  0.1                    !
 ! R8    R(5,9)                  0.0                     0.0                    !
 ! R9    R(9,10)                 0.0                     0.0                    !
 ! A1    A(2,1,3)                0.0                     0.0                    !
 ! A2    A(2,1,4)                0.0202                  0.7                    !
 ! A3    A(2,1,9)                0.1136                  3.7                    !
 ! A4    A(3,1,4)               -0.0202                  0.7                    !
 ! A5    A(3,1,9)               -0.1136                  3.7                    !
 ! A6    A(4,1,9)                0.0                     0.0                    !
 ! A7    A(6,5,7)                0.0202                  0.7                    !
 ! A8    A(6,5,8)                0.0                     0.0                    !
 ! A9    A(6,5,9)                0.1136                  3.7                    !
 ! A10   A(7,5,8)               -0.0202                  0.7                    !
 ! A11   A(7,5,9)                0.0                     0.0                    !
 ! A12   A(8,5,9)               -0.1136                  3.7                    !
 ! A13   A(1,9,5)                0.0                     0.0                    !
 ! A14   A(1,9,10)               0.0                     0.0                    !
 ! A15   A(5,9,10)               0.0                     0.0                    !
 ! D1    D(2,1,9,5)             -0.179                   5.8                    !
 ! D2    D(2,1,9,10)             0.2433                  7.9                    !
 ! D3    D(3,1,9,5)             -0.179                   5.8                    !
 ! D4    D(3,1,9,10)             0.2433                  7.9                    !
 ! D5    D(4,1,9,5)             -0.2774                  9.0                    !
 ! D6    D(4,1,9,10)             0.1449                  4.7                    !
 ! D7    D(6,5,9,1)              0.179                   5.8                    !
 ! D8    D(6,5,9,10)            -0.2433                  7.9                    !
 ! D9    D(7,5,9,1)              0.2774                  9.0                    !
 ! D10   D(7,5,9,10)            -0.1449                  4.7                    !
 ! D11   D(8,5,9,1)              0.179                   5.8                    !
 ! D12   D(8,5,9,10)            -0.2433                  7.9                    !
 --------------------------------------------------------------------------------
                           ----------------------------
                           ! Normal Mode     5        !
 --------------------------                            --------------------------
 ! Name  Definition              Value          Relative Weight (%)             !
 --------------------------------------------------------------------------------
 ! R1    R(1,2)                 -0.0005                  0.0                    !
 ! R2    R(1,3)                 -0.0005                  0.0                    !
 ! R3    R(1,4)                 -0.0013                  0.1                    !
 ! R4    R(1,9)                 -0.0755                  5.0                    !
 ! R5    R(5,6)                  0.0005                  0.0                    !
 ! R6    R(5,7)                  0.0013                  0.1                    !
 ! R7    R(5,8)                  0.0005                  0.0                    !
 ! R8    R(5,9)                  0.0755                  5.0                    !
 ! R9    R(9,10)                 0.0                     0.0                    !
 ! A1    A(2,1,3)                0.014                   0.9                    !
 ! A2    A(2,1,4)               -0.001                   0.1                    !
 ! A3    A(2,1,9)                0.0586                  3.9                    !
 ! A4    A(3,1,4)               -0.001                   0.1                    !
 ! A5    A(3,1,9)                0.0586                  3.9                    !
 ! A6    A(4,1,9)               -0.1249                  8.2                    !
 ! A7    A(6,5,7)                0.001                   0.1                    !
 ! A8    A(6,5,8)               -0.014                   0.9                    !
 ! A9    A(6,5,9)               -0.0586                  3.9                    !
 ! A10   A(7,5,8)                0.001                   0.1                    !
 ! A11   A(7,5,9)                0.1249                  8.2                    !
 ! A12   A(8,5,9)               -0.0586                  3.9                    !
 ! A13   A(1,9,5)                0.0                     0.0                    !
 ! A14   A(1,9,10)              -0.2421                 16.0                    !
 ! A15   A(5,9,10)               0.2421                 16.0                    !
 ! D1    D(2,1,9,5)             -0.0449                  3.0                    !
 ! D2    D(2,1,9,10)            -0.0449                  3.0                    !
 ! D3    D(3,1,9,5)              0.0449                  3.0                    !
 ! D4    D(3,1,9,10)             0.0449                  3.0                    !
 ! D5    D(4,1,9,5)              0.0                     0.0                    !
 ! D6    D(4,1,9,10)             0.0                     0.0                    !
 ! D7    D(6,5,9,1)             -0.0449                  3.0                    !
 ! D8    D(6,5,9,10)            -0.0449                  3.0                    !
 ! D9    D(7,5,9,1)              0.0                     0.0                    !
 ! D10   D(7,5,9,10)             0.0                     0.0                    !
 ! D11   D(8,5,9,1)              0.0449                  3.0                    !
 ! D12   D(8,5,9,10)             0.0449                  3.0                    !
 --------------------------------------------------------------------------------
                           ----------------------------
                           ! Normal Mode     6        !
 --------------------------                            --------------------------
 ! Name  Definition              Value          Relative Weight (%)             !
 --------------------------------------------------------------------------------
 ! R1    R(1,2)                  0.0027                  0.2                    !
 ! R2    R(1,3)                  0.0027                  0.2                    !
 ! R3    R(1,4)                  0.0069                  0.5                    !
 ! R4    R(1,9)                  0.3699                 26.7                    !
 ! R5    R(5,6)                  0.0027                  0.2                    !
 ! R6    R(5,7)                  0.0069                  0.5                    !
 ! R7    R(5,8)                  0.0027                  0.2                    !
 ! R8    R(5,9)                  0.3699                 26.7                    !
 ! R9    R(9,10)                 0.0284                  2.0                    !
 ! A1    A(2,1,3)               -0.011                   0.8                    !
 ! A2    A(2,1,4)               -0.0234                  1.7                    !
 ! A3    A(2,1,9)               -0.0143                  1.0                    !
 ! A4    A(3,1,4)               -0.0234                  1.7                    !
 ! A5    A(3,1,9)               -0.0143                  1.0                    !
 ! A6    A(4,1,9)                0.0828                  6.0                    !
 ! A7    A(6,5,7)               -0.0234                  1.7                    !
 ! A8    A(6,5,8)               -0.011                   0.8                    !
 ! A9    A(6,5,9)               -0.0143                  1.0                    !
 ! A10   A(7,5,8)               -0.0234                  1.7                    !
 ! A11   A(7,5,9)                0.0828                  6.0                    !
 ! A12   A(8,5,9)               -0.0143                  1.0                    !
 ! A13   A(1,9,5)               -0.0651                  4.7                    !
 ! A14   A(1,9,10)               0.0325                  2.3                    !
 ! A15   A(5,9,10)               0.0325                  2.3                    !
 ! D1    D(2,1,9,5)              0.0156                  1.1                    !
 ! D2    D(2,1,9,10)             0.0156                  1.1                    !
 ! D3    D(3,1,9,5)             -0.0156                  1.1                    !
 ! D4    D(3,1,9,10)            -0.0156                  1.1                    !
 ! D5    D(4,1,9,5)              0.0                     0.0                    !
 ! D6    D(4,1,9,10)             0.0                     0.0                    !
 ! D7    D(6,5,9,1)             -0.0156                  1.1                    !
 ! D8    D(6,5,9,10)            -0.0156                  1.1                    !
 ! D9    D(7,5,9,1)              0.0                     0.0                    !
 ! D10   D(7,5,9,10)             0.0                     0.0                    !
 ! D11   D(8,5,9,1)              0.0156                  1.1                    !
 ! D12   D(8,5,9,10)             0.0156                  1.1                    !
 --------------------------------------------------------------------------------
                           ----------------------------
                           ! Normal Mode     7        !
 --------------------------                            --------------------------
 ! Name  Definition              Value          Relative Weight (%)             !
 --------------------------------------------------------------------------------
 ! R1    R(1,2)                 -0.0092                  0.4                    !
 ! R2    R(1,3)                  0.0092                  0.4                    !
 ! R3    R(1,4)                  0.0                     0.0                    !
 ! R4    R(1,9)                  0.0                     0.0                    !
 ! R5    R(5,6)                  0.0092                  0.4                    !
 ! R6    R(5,7)                  0.0                     0.0                    !
 ! R7    R(5,8)                 -0.0092                  0.4                    !
 ! R8    R(5,9)                  0.0                     0.0                    !
 ! R9    R(9,10)                 0.0                     0.0                    !
 ! A1    A(2,1,3)                0.0                     0.0                    !
 ! A2    A(2,1,4)                0.0569                  2.3                    !
 ! A3    A(2,1,9)                0.2644                 10.7                    !
 ! A4    A(3,1,4)               -0.0569                  2.3                    !
 ! A5    A(3,1,9)               -0.2644                 10.7                    !
 ! A6    A(4,1,9)                0.0                     0.0                    !
 ! A7    A(6,5,7)               -0.0569                  2.3                    !
 ! A8    A(6,5,8)                0.0                     0.0                    !
 ! A9    A(6,5,9)               -0.2644                 10.7                    !
 ! A10   A(7,5,8)                0.0569                  2.3                    !
 ! A11   A(7,5,9)                0.0                     0.0                    !
 ! A12   A(8,5,9)                0.2644                 10.7                    !
 ! A13   A(1,9,5)                0.0                     0.0                    !
 ! A14   A(1,9,10)               0.0                     0.0                    !
 ! A15   A(5,9,10)               0.0                     0.0                    !
 ! D1    D(2,1,9,5)              0.0432                  1.8                    !
 ! D2    D(2,1,9,10)             0.0432                  1.8                    !
 ! D3    D(3,1,9,5)              0.0432                  1.8                    !
 ! D4    D(3,1,9,10)             0.0432                  1.8                    !
 ! D5    D(4,1,9,5)             -0.1982                  8.1                    !
 ! D6    D(4,1,9,10)            -0.1982                  8.1                    !
 ! D7    D(6,5,9,1)              0.0432                  1.8                    !
 ! D8    D(6,5,9,10)             0.0432                  1.8                    !
 ! D9    D(7,5,9,1)             -0.1982                  8.1                    !
 ! D10   D(7,5,9,10)            -0.1982                  8.1                    !
 ! D11   D(8,5,9,1)              0.0432                  1.8                    !
 ! D12   D(8,5,9,10)             0.0432                  1.8                    !
 --------------------------------------------------------------------------------
                           ----------------------------
                           ! Normal Mode     8        !
 --------------------------                            --------------------------
 ! Name  Definition              Value          Relative Weight (%)             !
 --------------------------------------------------------------------------------
 ! R1    R(1,2)                  0.0021                  0.1                    !
 ! R2    R(1,3)                  0.0021                  0.1                    !
 ! R3    R(1,4)                 -0.0049                  0.2                    !
 ! R4    R(1,9)                 -0.1904                  6.5                    !
 ! R5    R(5,6)                 -0.0021                  0.1                    !
 ! R6    R(5,7)                  0.0049                  0.2                    !
 ! R7    R(5,8)                 -0.0021                  0.1                    !
 ! R8    R(5,9)                  0.1904                  6.5                    !
 ! R9    R(9,10)                 0.0                     0.0                    !
 ! A1    A(2,1,3)               -0.0664                  2.3                    !
 ! A2    A(2,1,4)                0.0487                  1.7                    !
 ! A3    A(2,1,9)               -0.1477                  5.0                    !
 ! A4    A(3,1,4)                0.0487                  1.7                    !
 ! A5    A(3,1,9)               -0.1477                  5.0                    !
 ! A6    A(4,1,9)                0.2562                  8.7                    !
 ! A7    A(6,5,7)               -0.0487                  1.7                    !
 ! A8    A(6,5,8)                0.0664                  2.3                    !
 ! A9    A(6,5,9)                0.1477                  5.0                    !
 ! A10   A(7,5,8)               -0.0487                  1.7                    !
 ! A11   A(7,5,9)               -0.2562                  8.7                    !
 ! A12   A(8,5,9)                0.1477                  5.0                    !
 ! A13   A(1,9,5)                0.0                     0.0                    !
 ! A14   A(1,9,10)               0.0256                  0.9                    !
 ! A15   A(5,9,10)              -0.0256                  0.9                    !
 ! D1    D(2,1,9,5)              0.1326                  4.5                    !
 ! D2    D(2,1,9,10)             0.1326                  4.5                    !
 ! D3    D(3,1,9,5)             -0.1326                  4.5                    !
 ! D4    D(3,1,9,10)            -0.1326                  4.5                    !
 ! D5    D(4,1,9,5)              0.0                     0.0                    !
 ! D6    D(4,1,9,10)             0.0                     0.0                    !
 ! D7    D(6,5,9,1)              0.1326                  4.5                    !
 ! D8    D(6,5,9,10)             0.1326                  4.5                    !
 ! D9    D(7,5,9,1)              0.0                     0.0                    !
 ! D10   D(7,5,9,10)             0.0                     0.0                    !
 ! D11   D(8,5,9,1)             -0.1326                  4.5                    !
 ! D12   D(8,5,9,10)            -0.1326                  4.5                    !
 --------------------------------------------------------------------------------
                           ----------------------------
                           ! Normal Mode     9        !
 --------------------------                            --------------------------
 ! Name  Definition              Value          Relative Weight (%)             !
 --------------------------------------------------------------------------------
 ! R1    R(1,2)                 -0.0036                  0.1                    !
 ! R2    R(1,3)                 -0.0036                  0.1                    !
 ! R3    R(1,4)                  0.0065                  0.2                    !
 ! R4    R(1,9)                  0.0266                  0.8                    !
 ! R5    R(5,6)                 -0.0036                  0.1                    !
 ! R6    R(5,7)                  0.0065                  0.2                    !
 ! R7    R(5,8)                 -0.0036                  0.1                    !
 ! R8    R(5,9)                  0.0266                  0.8                    !
 ! R9    R(9,10)                 0.0661                  1.9                    !
 ! A1    A(2,1,3)                0.1088                  3.1                    !
 ! A2    A(2,1,4)               -0.0508                  1.5                    !
 ! A3    A(2,1,9)                0.1646                  4.8                    !
 ! A4    A(3,1,4)               -0.0508                  1.5                    !
 ! A5    A(3,1,9)                0.1646                  4.8                    !
 ! A6    A(4,1,9)               -0.3251                  9.4                    !
 ! A7    A(6,5,7)               -0.0508                  1.5                    !
 ! A8    A(6,5,8)                0.1088                  3.1                    !
 ! A9    A(6,5,9)                0.1646                  4.8                    !
 ! A10   A(7,5,8)               -0.0508                  1.5                    !
 ! A11   A(7,5,9)               -0.3251                  9.4                    !
 ! A12   A(8,5,9)                0.1646                  4.8                    !
 ! A13   A(1,9,5)               -0.1136                  3.3                    !
 ! A14   A(1,9,10)               0.0568                  1.6                    !
 ! A15   A(5,9,10)               0.0568                  1.6                    !
 ! D1    D(2,1,9,5)             -0.1692                  4.9                    !
 ! D2    D(2,1,9,10)            -0.1692                  4.9                    !
 ! D3    D(3,1,9,5)              0.1692                  4.9                    !
 ! D4    D(3,1,9,10)             0.1692                  4.9                    !
 ! D5    D(4,1,9,5)              0.0                     0.0                    !
[...]
      6  -0.470159D+00 -0.470159D+00  0.000000D+00  0.000000D+00  0.470159D+00
      7   0.630206D+00 -0.660036D+00  0.437849D+00 -0.852392D+00  0.630206D+00
      8  -0.585601D-01 -0.585601D-01  0.000000D+00  0.000000D+00  0.585601D-01
      9   0.947080D-01  0.947080D-01  0.000000D+00  0.000000D+00 -0.947080D-01
     10  -0.389247D+00  0.511748D+00 -0.389247D+00  0.511748D+00 -0.389247D+00
     11   0.000000D+00  0.000000D+00  0.000000D+00  0.000000D+00  0.000000D+00
     12   0.000000D+00  0.000000D+00  0.000000D+00  0.000000D+00  0.000000D+00
                36 
      1   0.265720D+00
      2   0.232150D+00
      3  -0.375451D+00
      4  -0.117433D+00
      5  -0.290710D+00
      6   0.470159D+00
      7  -0.660036D+00
      8   0.585601D-01
      9  -0.947080D-01
     10   0.511748D+00
     11   0.000000D+00
     12   0.000000D+00
 Iteration  1 RMS(Cart)=  0.00012396 RMS(Int)=  0.00000001
 Iteration  2 RMS(Cart)=  0.00000001 RMS(Int)=  0.00000000
 Input Coordinates in SymCor: 
                 1             2             3             4             5 
      1   0.000000D+00  0.166295D+01 -0.166295D+01  0.000000D+00  0.000000D+00
      2   0.244268D+01  0.253242D+01  0.253242D+01  0.405595D+01 -0.244268D+01
      3  -0.116130D+01 -0.239340D+01 -0.239340D+01  0.121222D+00 -0.116130D+01
                 6             7             8             9            10 
      1   0.166295D+01  0.000000D+00 -0.166295D+01  0.000000D+00  0.000000D+00
      2  -0.253242D+01 -0.405595D+01 -0.253242D+01  0.000000D+00  0.000000D+00
      3  -0.239340D+01  0.121222D+00 -0.239340D+01  0.348733D+00  0.264628D+01
 Symmetrized Coordinates in SymCor: 
                 1             2             3             4             5 
      1   0.000000D+00  0.166295D+01 -0.166295D+01  0.000000D+00  0.000000D+00
      2   0.244268D+01  0.253242D+01  0.253242D+01  0.405595D+01 -0.244268D+01
      3  -0.116130D+01 -0.239340D+01 -0.239340D+01  0.121222D+00 -0.116130D+01
                 6             7             8             9            10 
      1   0.166295D+01  0.000000D+00 -0.166295D+01  0.000000D+00  0.000000D+00
      2  -0.253242D+01 -0.405595D+01 -0.253242D+01  0.000000D+00  0.000000D+00
      3  -0.239340D+01  0.121222D+00 -0.239340D+01  0.348733D+00  0.264628D+01
 Final Coordinates in SymCor: 
                 1             2             3             4             5 
      1   0.000000D+00  0.166295D+01 -0.166295D+01  0.000000D+00  0.000000D+00
      2   0.244268D+01  0.253242D+01  0.253242D+01  0.405595D+01 -0.244268D+01
      3  -0.116130D+01 -0.239340D+01 -0.239340D+01  0.121222D+00 -0.116130D+01
                 6             7             8             9            10 
      1   0.166295D+01  0.000000D+00 -0.166295D+01  0.000000D+00  0.000000D+00
      2  -0.253242D+01 -0.405595D+01 -0.253242D+01  0.000000D+00  0.000000D+00
      3  -0.239340D+01  0.121222D+00 -0.239340D+01  0.348733D+00  0.264628D+01
 ClnCor:  largest displacement from symmetrization is 1.44D-09 for atom     6.
 Variable       Old X    -DE/DX   Delta X   Delta X   Delta X     New X
                                 (Linear)    (Quad)   (Total)
    R1        2.07165  -0.00002   0.00000  -0.00005  -0.00005   2.07160
    R2        2.07165  -0.00002   0.00000  -0.00005  -0.00005   2.07160
    R3        2.06096  -0.00000   0.00000  -0.00001  -0.00001   2.06095
    R4        2.87170   0.00001   0.00000   0.00004   0.00004   2.87174
    R5        2.07165  -0.00002   0.00000  -0.00005  -0.00005   2.07160
    R6        2.06096  -0.00000   0.00000  -0.00001  -0.00001   2.06095
    R7        2.07165  -0.00002   0.00000  -0.00005  -0.00005   2.07160
    R8        2.87170   0.00001   0.00000   0.00004   0.00004   2.87174
    R9        2.29746   0.00006   0.00000   0.00009   0.00009   2.29755
    A1        1.86351   0.00002   0.00000   0.00023   0.00023   1.86374
    A2        1.91369   0.00000   0.00000  -0.00001  -0.00001   1.91368
    A3        1.92801  -0.00002   0.00000  -0.00008  -0.00008   1.92793
    A4        1.91369   0.00000   0.00000  -0.00001  -0.00001   1.91368
    A5        1.92801  -0.00002   0.00000  -0.00008  -0.00008   1.92793
    A6        1.91627   0.00001   0.00000  -0.00004  -0.00004   1.91623
    A7        1.91369   0.00000   0.00000  -0.00001  -0.00001   1.91368
    A8        1.86351   0.00002   0.00000   0.00023   0.00023   1.86374
    A9        1.92801  -0.00002   0.00000  -0.00008  -0.00008   1.92793
   A10        1.91369   0.00000   0.00000  -0.00001  -0.00001   1.91368
   A11        1.91627   0.00001   0.00000  -0.00004  -0.00004   1.91623
   A12        1.92801  -0.00002   0.00000  -0.00008  -0.00008   1.92793
   A13        2.03403   0.00004   0.00000   0.00019   0.00019   2.03422
   A14        2.12458  -0.00002   0.00000  -0.00010  -0.00010   2.12448
   A15        2.12458  -0.00002   0.00000  -0.00010  -0.00010   2.12448
    D1       -1.02894  -0.00000   0.00000  -0.00009  -0.00009  -1.02903
    D2        2.11265  -0.00000   0.00000  -0.00009  -0.00009   2.11256
    D3        1.02894   0.00000   0.00000   0.00009   0.00009   1.02903
    D4       -2.11265   0.00000   0.00000   0.00009   0.00009  -2.11256
    D5        3.14159  -0.00000   0.00000  -0.00000   0.00000   3.14159
    D6        0.00000  -0.00000   0.00000  -0.00000  -0.00000   0.00000
    D7        1.02894   0.00000   0.00000   0.00009   0.00009   1.02903
    D8       -2.11265   0.00000   0.00000   0.00009   0.00009  -2.11256
    D9        3.14159  -0.00000   0.00000  -0.00000   0.00000   3.14159
   D10        0.00000  -0.00000   0.00000  -0.00000   0.00000   0.00000
   D11       -1.02894  -0.00000   0.00000  -0.00009  -0.00009  -1.02903
   D12        2.11265  -0.00000   0.00000  -0.00009  -0.00009   2.11256
         Item               Value     Threshold  Converged?
 Maximum Force            0.000062     0.000450     YES
 RMS     Force            0.000016     0.000300     YES
 Maximum Displacement     0.000314     0.001800     YES
 RMS     Displacement     0.000124     0.001200     YES
 Predicted change in Energy=-1.946527D-08
 Optimization completed.
    -- Stationary point found.
                           ----------------------------
                           !   Optimized Parameters   !
                           ! (Angstroms and Degrees)  !
 --------------------------                            --------------------------
 ! Name  Definition              Value          Derivative Info.                !
 --------------------------------------------------------------------------------
 ! R1    R(1,2)                  1.0963         -DE/DX =    0.0                 !
 ! R2    R(1,3)                  1.0963         -DE/DX =    0.0                 !
 ! R3    R(1,4)                  1.0906         -DE/DX =    0.0                 !
 ! R4    R(1,9)                  1.5196         -DE/DX =    0.0                 !
 ! R5    R(5,6)                  1.0963         -DE/DX =    0.0                 !
 ! R6    R(5,7)                  1.0906         -DE/DX =    0.0                 !
 ! R7    R(5,8)                  1.0963         -DE/DX =    0.0                 !
 ! R8    R(5,9)                  1.5196         -DE/DX =    0.0                 !
 ! R9    R(9,10)                 1.2158         -DE/DX =    0.0001              !
 ! A1    A(2,1,3)              106.7713         -DE/DX =    0.0                 !
 ! A2    A(2,1,4)              109.6463         -DE/DX =    0.0                 !
 ! A3    A(2,1,9)              110.467          -DE/DX =    0.0                 !
 ! A4    A(3,1,4)              109.6463         -DE/DX =    0.0                 !
 ! A5    A(3,1,9)              110.467          -DE/DX =    0.0                 !
 ! A6    A(4,1,9)              109.794          -DE/DX =    0.0                 !
 ! A7    A(6,5,7)              109.6463         -DE/DX =    0.0                 !
 ! A8    A(6,5,8)              106.7713         -DE/DX =    0.0                 !
 ! A9    A(6,5,9)              110.467          -DE/DX =    0.0                 !
 ! A10   A(7,5,8)              109.6463         -DE/DX =    0.0                 !
 ! A11   A(7,5,9)              109.794          -DE/DX =    0.0                 !
 ! A12   A(8,5,9)              110.467          -DE/DX =    0.0                 !
 ! A13   A(1,9,5)              116.5411         -DE/DX =    0.0                 !
 ! A14   A(1,9,10)             121.7295         -DE/DX =    0.0                 !
 ! A15   A(5,9,10)             121.7295         -DE/DX =    0.0                 !
 ! D1    D(2,1,9,5)            -58.9538         -DE/DX =    0.0                 !
 ! D2    D(2,1,9,10)           121.0462         -DE/DX =    0.0                 !
 ! D3    D(3,1,9,5)             58.9538         -DE/DX =    0.0                 !
 ! D4    D(3,1,9,10)          -121.0462         -DE/DX =    0.0                 !
 ! D5    D(4,1,9,5)            180.0            -DE/DX =    0.0                 !
 ! D6    D(4,1,9,10)             0.0            -DE/DX =    0.0                 !
 ! D7    D(6,5,9,1)             58.9538         -DE/DX =    0.0                 !
 ! D8    D(6,5,9,10)          -121.0462         -DE/DX =    0.0                 !
 ! D9    D(7,5,9,1)            180.0            -DE/DX =    0.0                 !
 ! D10   D(7,5,9,10)             0.0            -DE/DX =    0.0                 !
 ! D11   D(8,5,9,1)            -58.9538         -DE/DX =    0.0                 !
 ! D12   D(8,5,9,10)           121.0462         -DE/DX =    0.0                 !
 --------------------------------------------------------------------------------
 GradGradGradGradGradGradGradGradGradGradGradGradGradGradGradGradGradGrad

 Leave Link  103 at Sat Aug 10 16:33:15 2019, MaxMem=  4294967296 cpu:               0.3 elap:               0.0

 ----------------------------------------------------------------------

 Electric dipole moment (input orientation):
 (Debye = 10**-18 statcoulomb cm , SI units = C m)
                  (au)            (Debye)         (10**-30 SI)
   Tot        0.111313D+01      0.282930D+01      0.943753D+01
   x          0.000000D+00      0.000000D+00      0.000000D+00
   y          0.000000D+00      0.000000D+00      0.000000D+00
   z         -0.111313D+01     -0.282930D+01     -0.943753D+01

 Dipole polarizability, Alpha (input orientation).
 (esu units = cm**3 , SI units = C**2 m**2 J**-1)
 Alpha(0;0):
               (au)            (10**-24 esu)      (10**-40 SI)
   iso        0.343092D+02      0.508410D+01      0.565682D+01
   aniso      0.108224D+02      0.160372D+01      0.178438D+01
   xx         0.272208D+02      0.403370D+01      0.448810D+01
   yx         0.000000D+00      0.000000D+00      0.000000D+00
   yy         0.366884D+02      0.543666D+01      0.604910D+01
   zx         0.000000D+00      0.000000D+00      0.000000D+00
   zy         0.000000D+00      0.000000D+00      0.000000D+00
   zz         0.390184D+02      0.578193D+01      0.643327D+01

 ----------------------------------------------------------------------

 Dipole orientation:
     6          0.00000000         -2.44249936          1.16120647
     1          1.66284561         -2.53220655          2.39353089
     1         -1.66284561         -2.53220655          2.39353089
     1          0.00000000         -4.05594753         -0.12110877
     6         -0.00000000          2.44249936          1.16120647
     1          1.66284561          2.53220655          2.39353089
     1         -0.00000000          4.05594753         -0.12110877
     1         -1.66284561          2.53220655          2.39353089
     6          0.00000000          0.00000000         -0.34904753
     8          0.00000000          0.00000000         -2.64651230

 Electric dipole moment (dipole orientation):
 (Debye = 10**-18 statcoulomb cm , SI units = C m)
                  (au)            (Debye)         (10**-30 SI)
   Tot        0.111313D+01      0.282930D+01      0.943753D+01
   x          0.000000D+00      0.000000D+00      0.000000D+00
   y          0.000000D+00      0.000000D+00      0.000000D+00
   z          0.111313D+01      0.282930D+01      0.943753D+01

 Dipole polarizability, Alpha (dipole orientation).
 (esu units = cm**3 , SI units = C**2 m**2 J**-1)
 Alpha(0;0):
               (au)            (10**-24 esu)      (10**-40 SI)
   iso        0.343092D+02      0.508410D+01      0.565682D+01
   aniso      0.108224D+02      0.160372D+01      0.178438D+01
   xx         0.272208D+02      0.403370D+01      0.448810D+01
   yx         0.000000D+00      0.000000D+00      0.000000D+00
   yy         0.366884D+02      0.543666D+01      0.604910D+01
   zx         0.000000D+00      0.000000D+00      0.000000D+00
   zy         0.000000D+00      0.000000D+00      0.000000D+00
   zz         0.390184D+02      0.578193D+01      0.643327D+01

 ----------------------------------------------------------------------

 Test job not archived.
 1\1\NSC-N1360\Freq\RB3LYP\6-31G(d,p)\C3H6O1\X_KJEJO\10-Aug-2019\0\\# f
 req(intmodes) iop(1/33=3) b3lyp/6-31g(d,p) geom=connectivity iop(7/75=
 -1)\\name\\0,1\C,0.,1.292515,-0.614484\H,0.87994,1.339986,-1.266602\H,
 -0.87994,1.339986,-1.266602\H,0.,2.146315,0.064088\C,0.,-1.292515,-0.6
 14484\H,0.87994,-1.339986,-1.266602\H,0.,-2.146315,0.064088\H,-0.87994
 ,-1.339986,-1.266602\C,0.,0.,0.184708\O,0.,0.,1.400474\\Version=ES64L-
 G16RevB.01\State=1-A1\HF=-193.1642115\RMSD=9.866e-09\RMSF=2.522e-05\Ze
 roPoint=0.0837709\Thermal=0.0891597\Dipole=0.,0.,-1.1131327\DipoleDeri
 v=0.076336,0.,0.,0.,-0.2930161,0.1819709,0.,0.1432944,-0.098496,-0.031
 524,-0.0067457,0.0914388,0.0331526,0.0476977,0.0047685,0.081906,0.0032
 479,0.0205267,-0.031524,0.0067457,-0.0914388,-0.0331526,0.0476977,0.00
 47685,-0.081906,0.0032479,0.0205267,0.0754947,0.,0.,0.,-0.0579037,-0.0
 431192,0.,-0.0788409,0.0059391,0.076336,0.,0.,0.,-0.2930161,-0.1819709
 ,0.,-0.1432944,-0.098496,-0.031524,0.0067457,0.0914388,-0.0331526,0.04
 76977,-0.0047685,0.081906,-0.0032479,0.0205267,0.0754947,0.,0.,0.,-0.0
 579037,0.0431192,0.,0.0788409,0.0059391,-0.031524,-0.0067457,-0.091438
 8,0.0331526,0.0476977,-0.0047685,-0.081906,-0.0032479,0.0205267,0.1049
 818,0.,0.,0.,1.1238749,0.,0.,0.,1.1111711,-0.2825471,0.,0.,0.,-0.61282
 61,0.,0.,0.,-1.008164\Polar=27.2207596,0.,36.6883878,0.,0.,39.0184038\
 Quadrupole=0.9400776,1.300236,-2.2403136,0.,0.,0.\PG=C02V [C2(C1O1),SG
 V(C2H2),X(H4)]\NImag=0\\0.52469857,0.,0.51197791,0.,0.07199062,0.55677
 790,-0.21464943,-0.00881121,0.12790555,0.23345433,-0.01221568,-0.05004
 155,0.00529695,0.00902373,0.04753231,0.13094570,0.00388495,-0.13554226
 ,-0.13983521,-0.00739974,0.14704569,-0.21464943,0.00881121,-0.12790555
 ,-0.02143024,0.00135882,-0.01651882,0.23345433,0.01221569,-0.05004155,
 0.00529695,-0.00135882,-0.00026341,-0.00155139,-0.00902373,0.04753231,
 -0.13094570,0.00388495,-0.13554225,0.01651882,-0.00155139,0.01260427,0
 .13983521,-0.00739974,0.14704569,-0.04926889,0.,0.,0.00140223,0.021681
 55,0.01543900,0.00140223,-0.02168155,-0.01543900,0.04693050,0.,-0.2153
 4553,-0.13438554,0.00051912,0.00283831,0.00288804,-0.00051912,0.002838
 31,0.00288804,0.,0.23278205,0.,-0.13892643,-0.15891189,-0.00203631,-0.
 01307583,-0.01033158,0.00203631,-0.01307583,-0.01033158,0.,0.14715917,
 0.16704605,0.01720261,0.,0.,-0.00051780,0.00264954,-0.00104377,-0.0005
 1780,-0.00264954,0.00104377,0.00116411,0.,0.,0.52469857,0.,-0.02356760
 ,-0.01334281,0.00003405,-0.00017761,-0.00048045,-0.00003405,-0.0001776
 1,-0.00048045,0.,-0.00365140,0.00258227,0.,0.51197791,0.,0.01334281,0.
 01470739,0.00020521,-0.00140664,0.00006352,-0.00020521,-0.00140664,0.0
 0006352,0.,0.00513746,-0.00200111,0.,-0.07199062,0.55677790,-0.0005178
 0,-0.00003405,0.00020521,0.00058521,-0.00000647,-0.00019253,-0.0000617
 7,0.00005127,0.00009076,0.00021493,0.00012689,-0.00012117,-0.21464943,
 0.00881121,0.12790555,0.23345433,-0.00264954,-0.00017761,0.00140664,0.
 00000647,-0.00155665,0.00028960,0.00005127,0.00022217,-0.00028535,-0.0
 0037952,0.00042629,0.00001921,0.01221569,-0.05004155,-0.00529695,-0.00
 902373,0.04753231,-0.00104377,0.00048045,0.00006352,-0.00019253,-0.000
 28960,0.00073184,-0.00009076,0.00028535,0.00006865,-0.00035309,0.00007
 737,-0.00006776,0.13094570,-0.00388495,-0.13554225,-0.13983521,0.00739
 974,0.14704569,0.00116411,0.,0.,0.00021493,0.00037952,-0.00035309,0.00
 021493,-0.00037952,0.00035309,0.00057879,0.,0.,-0.04926889,0.,0.,0.001
 40223,-0.02168155,0.01543900,0.04693050,0.,-0.00365140,-0.00513746,-0.
 00012689,0.00042629,-0.00007737,0.00012689,0.00042629,-0.00007737,0.,-
 0.00149256,0.00091571,0.,-0.21534553,0.13438554,-0.00051912,0.00283831
 ,-0.00288804,0.,0.23278205,0.,-0.00258227,-0.00200111,-0.00012117,-0.0
 0001921,-0.00006776,0.00012117,-0.00001921,-0.00006776,0.,-0.00091571,
 0.00058286,0.,0.13892643,-0.15891189,-0.00203631,0.01307583,-0.0103315
 8,0.,-0.14715917,0.16704605,-0.00051780,0.00003405,-0.00020521,-0.0000
 6177,-0.00005127,-0.00009076,0.00058521,0.00000647,0.00019253,0.000214
 93,-0.00012689,0.00012117,-0.21464943,-0.00881121,-0.12790555,-0.02143
 024,-0.00135882,-0.01651882,0.00140223,0.00051912,0.00203631,0.2334543
 3,0.00264954,-0.00017761,0.00140664,-0.00005127,0.00022217,-0.00028535
 ,-0.00000647,-0.00155665,0.00028960,0.00037952,0.00042629,0.00001921,-
 0.01221568,-0.05004155,-0.00529695,0.00135882,-0.00026341,0.00155139,0
 .02168155,0.00283831,0.01307583,0.00902373,0.04753231,0.00104377,0.000
 48045,0.00006352,0.00009076,0.00028535,0.00006865,0.00019253,-0.000289
 60,0.00073184,0.00035309,0.00007737,-0.00006776,-0.13094570,-0.0038849
 5,-0.13554226,0.01651882,0.00155139,0.01260427,-0.01543900,-0.00288804
 ,-0.01033158,0.13983521,0.00739974,0.14704569,-0.08926158,0.,0.,0.0019
 3814,-0.02639315,0.01396063,0.00193814,0.02639315,-0.01396063,-0.00142
 503,0.,0.,-0.08926158,0.,0.,0.00193814,0.02639315,0.01396063,-0.001425
 03,0.,0.,0.00193814,-0.02639315,-0.01396063,0.24153740,0.,-0.17756802,
 0.02638267,0.00082151,0.00466627,-0.00189758,-0.00082151,0.00466627,-0
 .00189758,0.,-0.02487897,0.01605760,0.,-0.17756802,-0.02638267,-0.0008
 2151,0.00466627,0.00189758,0.,-0.02487897,-0.01605760,0.00082151,0.004
 66627,0.00189758,0.,0.49784805,0.,0.02808174,-0.09180389,-0.00129201,0
 .01477708,-0.01322304,0.00129201,0.01477708,-0.01322304,0.,-0.02283224
 ,0.01244154,0.,-0.02808174,-0.09180389,-0.00129201,-0.01477708,-0.0132
 2304,0.,0.02283224,0.01244154,0.00129201,-0.01477708,-0.01322304,0.,0.
 ,0.96971306,0.02579963,0.,0.,-0.00093561,0.00357341,-0.00231117,-0.000
 93561,-0.00357341,0.00231117,-0.00121380,0.,0.,0.02579963,0.,0.,-0.000
 93561,-0.00357341,-0.00231117,-0.00121380,0.,0.,-0.00093561,0.00357341
 ,0.00231117,-0.06791674,0.,0.,0.02248753,0.,0.00859294,0.04108536,-0.0
 0005670,-0.00364613,0.00462929,0.00005670,-0.00364613,0.00462929,0.,0.
 00605721,-0.00167508,0.,0.00859294,-0.04108536,0.00005670,-0.00364613,
 -0.00462929,0.,0.00605721,0.00167508,-0.00005670,-0.00364613,-0.004629
 29,0.,-0.11161914,0.,0.,0.09690335,0.,0.01936272,-0.04781092,-0.001243
 11,0.00338304,-0.00134933,0.00124311,0.00338304,-0.00134933,0.,-0.0000
 9394,0.00164123,0.,-0.01936272,-0.04781092,-0.00124311,-0.00338304,-0.
 00134933,0.,0.00009394,0.00164123,0.00124311,-0.00338304,-0.00134933,0
 .,0.,-0.75809621,0.,0.,0.85583291\\0.,-0.00003442,0.00002625,0.0000015
 6,0.00000593,-0.00002329,-0.00000156,0.00000593,-0.00002329,0.,-0.0000
 0135,0.00000311,0.,0.00003442,0.00002625,0.00000156,-0.00000593,-0.000
 02329,0.,0.00000135,0.00000311,-0.00000156,-0.00000593,-0.00002329,0.,
 0.,0.00009595,0.,0.,-0.00006151\\\@


 I do not feel obliged to believe that the same God who
 has endowed us with sense, reason, and intellect has
 intended us to forgo their use.
                   --Galileo Galilei
 Job cpu time:       0 days  0 hours  1 minutes 23.7 seconds.
 Elapsed time:       0 days  0 hours  0 minutes  6.3 seconds.
 File lengths (MBytes):  RWF=     10 Int=      0 D2E=      0 Chk=      8 Scr=      1
 Normal termination of Gaussian 16 at Sat Aug 10 16:33:15 2019.
